/*--------------------------------*- C++ -*----------------------------------*\
| =========                 |                                                 |
| \\      /  F ield         | OpenFOAM: The Open Source CFD Toolbox           |
|  \\    /   O peration     | Version:  2.2.1                                 |
|   \\  /    A nd           | Web:      www.OpenFOAM.org                      |
|    \\/     M anipulation  |                                                 |
\*---------------------------------------------------------------------------*/
FoamFile
{
    version     2.0;
    format      ascii;
    class       volScalarField;
    location    "4.5e-05";
    object      alpha1;
}
// * * * * * * * * * * * * * * * * * * * * * * * * * * * * * * * * * * * * * //

dimensions      [0 0 0 0 0 0 0];

internalField   nonuniform List<scalar> 
22464
(
0.0276863
0.0460469
0.0625627
0.144079
0.0414168
0.0866933
0.0207867
0.0172379
0.0040288
0.00362046
0.000356006
0.000323288
0.000378161
0.000597831
0.000776637
0.00090132
0.000924639
0.000886428
0.00077205
0.000709409
0.000692176
0.000705043
0.000727711
0.000773217
0.000823686
0.000872769
0.00090622
0.000917412
0.00091032
0.000880911
0.000849242
0.000822495
0.000814967
0.000816375
0.000813709
0.000815329
0.000820656
0.000832406
0.000845987
0.000855102
0.000855529
0.000862804
0.00085392
0.000847828
0.000832952
0.00082577
0.000818119
0.000813481
0.000808783
0.000805236
0.000799486
0.000792836
0.000794704
0.00079479
0.00080448
0.000823962
0.000824431
0.000788101
0.000880394
0.0012317
0.00151376
0.00192427
0.00246092
0.0035682
0.00453435
0.0034651
0.00398372
0.00141705
0.00157859
0.000703504
0.000761331
0.000591812
0.000606393
0.000609478
0.000637917
0.000683851
0.000716395
0.000747875
0.00075165
0.000988399
0.00117854
0.00127963
0.00151816
0.00184523
0.0028531
0.00465614
0.00435064
0.00505872
0.00213788
0.00128957
0.000628554
0.000357998
0.000284353
0.000220614
0.000196403
0.000171212
0.000140523
0.000109867
8.34706e-05
6.09307e-05
4.10652e-05
2.49986e-05
1.33512e-05
6.15241e-06
2.33755e-06
7.02748e-07
1.60743e-07
2.64826e-08
2.9555e-09
2.17067e-10
9.54014e-12
1.37135e-13
2.36804e-16
3.5788e-20
1.65689e-24
7.31781e-29
3.10987e-33
1.26132e-37
4.83114e-42
1.73566e-46
5.85086e-51
1.86156e-55
5.69774e-60
1.75818e-64
5.98333e-69
2.47856e-73
1.25472e-77
7.04938e-82
4.01545e-86
2.21703e-90
1.17061e-94
5.84651e-99
2.69161e-103
1.13625e-107
4.47751e-112
1.66206e-116
5.84259e-121
1.95167e-125
6.21433e-130
1.89033e-134
5.50886e-139
1.54231e-143
4.16006e-148
1.08549e-152
2.75389e-157
6.82289e-162
1.66034e-166
3.99145e-171
9.54865e-176
-1.71386e-180
-8.8055e-180
-3.99817e-180
-1.21057e-180
-2.93474e-181
-6.03359e-182
-1.08174e-182
-1.7231e-183
-2.47286e-184
-3.23375e-185
-3.88819e-186
-4.33209e-187
-4.50306e-188
-4.39363e-189
-4.04669e-190
-3.53584e-191
-2.94539e-192
-2.35156e-193
-1.80874e-194
-1.3475e-195
-9.77605e-197
-6.94246e-198
-4.84737e-199
-3.3387e-200
-2.27191e-201
-1.52768e-202
-1.0141e-203
-6.63433e-205
-4.26817e-206
-2.69489e-207
-1.66701e-208
-1.00896e-209
-5.96988e-211
-3.45107e-212
-1.94861e-213
-1.07467e-214
-5.7896e-216
-3.04767e-217
-1.56819e-218
-7.89136e-220
-3.88581e-221
-1.87349e-222
-8.84968e-224
-4.0982e-225
-1.86187e-226
-8.30332e-228
-3.63725e-229
-1.56589e-230
-6.62894e-232
-2.76063e-233
-1.13136e-234
-4.56387e-236
-1.8125e-237
-7.08737e-239
-2.72896e-240
-1.03481e-241
-3.86494e-243
-1.42202e-244
-5.15508e-246
-1.84156e-247
-6.48322e-249
-2.24939e-250
-7.69109e-252
-2.5914e-253
-8.60314e-255
-2.81391e-256
-9.06743e-258
-2.87847e-259
-9.00245e-261
-2.77416e-262
-8.42439e-264
-2.52133e-265
-7.4382e-267
-2.16316e-268
-6.20186e-270
-1.75297e-271
-4.88486e-273
-1.34202e-274
-3.63508e-276
-9.70807e-278
-2.55653e-279
-6.6393e-281
-1.70065e-282
-4.29746e-284
-1.07151e-285
-2.63662e-287
-6.40413e-289
-1.53564e-290
-3.63573e-292
-8.50016e-294
-1.96274e-295
-4.47701e-297
-1.00898e-298
-2.24719e-300
-4.94739e-302
-1.077e-303
-2.31898e-305
-4.94038e-307
-1.03696e-308
-2.60964e-310
0
0
0
0
0
0
0
0
0
0
0
0
0
0
0
0
0
0
0
0
0
0
0
0
0
0
0
0
0
0
0
0
0
0
0
0
0
0
0
0
0
0
0
0
0
0
0
0
0
0
0
0
0
0
0
0
0
0
0
0
0
0
0
0
0
0
0
0
0
0
-1.0788e-309
-5.60174e-308
-2.73732e-306
-1.32609e-304
-6.363e-303
-3.02263e-301
-1.42089e-299
-6.60728e-298
-3.03817e-296
-1.381e-294
-6.2036e-293
-2.75319e-291
-1.20687e-289
-5.22408e-288
-2.23255e-286
-9.41778e-285
-3.92094e-283
-1.61094e-281
-6.53081e-280
-2.61233e-278
-1.03095e-276
-4.01392e-275
-1.54166e-273
-5.84065e-272
-2.18248e-270
-8.0429e-269
-2.92289e-267
-1.04742e-265
-3.70089e-264
-1.28921e-262
-4.42739e-261
-1.49892e-259
-5.00264e-258
-1.64596e-256
-5.3386e-255
-1.70682e-253
-5.37874e-252
-1.67065e-250
-5.11426e-249
-1.54295e-247
-4.5875e-246
-1.3441e-244
-3.88079e-243
-1.10421e-241
-3.09636e-240
-8.55735e-239
-2.33084e-237
-6.25705e-236
-1.65532e-234
-4.31505e-233
-1.10816e-231
-2.80295e-230
-6.98036e-229
-1.71096e-227
-4.12613e-226
-9.78636e-225
-2.28196e-223
-5.22914e-222
-1.17702e-220
-2.60128e-219
-5.64131e-218
-1.19981e-216
-2.50086e-215
-5.10541e-214
-1.02018e-212
-1.9944e-211
-3.81308e-210
-7.12835e-209
-1.30309e-207
-2.33006e-206
-4.0778e-205
-6.99151e-204
-1.17597e-202
-1.94393e-201
-3.16485e-200
-5.08598e-199
-8.08434e-198
-1.27287e-196
-1.98576e-195
-3.06642e-194
-4.67567e-193
-7.01331e-192
-1.03007e-190
-1.47398e-189
-2.04459e-188
-2.73588e-187
-3.5152e-186
-4.31759e-185
-5.04781e-184
-5.59249e-183
-5.84453e-182
-5.73288e-181
-5.24948e-180
-4.46031e-179
-3.49267e-178
-2.50024e-177
-1.62023e-176
-9.38738e-176
-4.78347e-175
-2.09522e-174
-7.6202e-174
-2.15456e-173
-3.61847e-173
3.25466e-171
1.37127e-166
5.63297e-162
2.27242e-157
8.95197e-153
3.4291e-148
1.27089e-143
4.53877e-139
1.55747e-134
5.12019e-130
1.60782e-125
4.81138e-121
1.36798e-116
3.68361e-112
9.34765e-108
2.21724e-103
4.83315e-99
9.68498e-95
1.83321e-90
3.32342e-86
5.85929e-82
1.05382e-77
2.12205e-73
5.24562e-69
1.56936e-64
5.13434e-60
1.68503e-55
5.30862e-51
1.57738e-46
4.39523e-42
1.14798e-37
2.82948e-33
6.65332e-29
1.50637e-24
3.25947e-20
2.20784e-16
1.30671e-13
9.2327e-12
2.11558e-10
2.89287e-09
2.60246e-08
1.58497e-07
6.94844e-07
2.31618e-06
6.10585e-06
1.32684e-05
2.48788e-05
4.09326e-05
6.08047e-05
8.33032e-05
0.000109593
0.00014
0.000171126
0.000196642
0.000220583
0.000276245
0.00036718
0.000570071
0.00134717
0.00196605
0.00513445
0.00407245
0.00468563
0.0029503
0.00187711
0.00153088
0.0012904
0.00118652
0.000988636
0.000749043
0.00074845
0.000717962
0.000687374
0.000641335
0.000611794
0.000604045
0.000595312
0.000769581
0.000717804
0.00163249
0.00145269
0.00410462
0.00337927
0.00446031
0.00345494
0.00239379
0.00188631
0.00147599
0.00119634
0.000858588
0.000759629
0.000798614
0.000820898
0.000814845
0.00080567
0.000793716
0.000800741
0.000818159
0.000839453
0.000848317
0.000841189
0.000831997
0.00082385
0.000816508
0.000818864
0.000816998
0.000818083
0.000818661
0.000826046
0.000834045
0.00084213
0.000840697
0.000836075
0.000823221
0.000806531
0.00078585
0.000774197
0.0007571
0.000752317
0.000748951
0.000762828
0.000784074
0.000815906
0.000854721
0.000897198
0.000936801
0.000969537
0.000991511
0.00099574
0.000988408
0.000993491
0.000981454
0.000952856
0.000883084
0.000786174
0.000620223
0.000320603
0.000319544
0.00243339
0.00293107
0.0118341
0.0154983
0.0615998
0.0299976
0.108764
0.0461641
0.0336659
0.0201839
0
0
0
0
0
0
0
0
0
0
0
0
0
0
0
0
0
0
0
0
0
0
0
0
0
0
0
0
0
0
0
0
0
0
0
0
0
0
0
0
0
0
0
0
0
0
0
0
0
0
0
0
0
0
0
0
0
0
0
0
0
0
0
0
0
0
0
0
0
0
0
0
0
0
0
0
0
0
0
0
0
0
0
0
0
0
0
0
0
0
0
0
0
0
0
0
0
0
0
0
0
0
0
0
0
0
0
0
0
0
0
0
0
0
0
0
0
0
0.00646562
0.000280288
2.08557e-06
8.04768e-09
1.08579e-20
1.05957e-20
2.93503e-21
1.41343e-23
3.07776e-26
2.03862e-28
4.66288e-31
4.89065e-33
1.17357e-34
5.19752e-35
7.18116e-35
1.58968e-34
5.46071e-34
1.33441e-33
2.65577e-33
3.8589e-33
4.4882e-33
3.06698e-33
1.07932e-33
2.22344e-34
3.40916e-35
3.22331e-35
6.60183e-33
5.48462e-35
8.3061e-28
3.96329e-25
3.5798e-23
2.24376e-20
7.85384e-21
3.6669e-12
4.52996e-08
5.12619e-06
0.000527402
0.00904662
0
0
0
0
0
0
0
0
0
0
0
0
0
0
0
0
0
0
0
0
0
0
0
0
0
0
0
0
0
0
0
-2.42487e-310
-1.23616e-308
-6.1092e-307
-2.98798e-305
-1.44709e-303
-6.93661e-302
-3.28988e-300
-1.5433e-298
-7.15879e-297
-3.2827e-295
-1.48774e-293
-6.66241e-292
-2.94753e-290
-1.28801e-288
-5.55821e-287
-2.36824e-285
-9.96144e-284
-4.13578e-282
-1.69465e-280
-6.85225e-279
-2.73386e-277
-1.07615e-275
-4.17918e-274
-1.601e-272
-6.04978e-271
-2.25472e-269
-8.28721e-268
-3.00363e-266
-1.07341e-264
-3.78213e-263
-1.31378e-261
-4.49845e-260
-1.51818e-258
-5.04978e-257
-1.65535e-255
-5.34762e-254
-1.70237e-252
-5.3398e-251
-1.65021e-249
-5.02421e-248
-1.5069e-246
-4.45208e-245
-1.29565e-243
-3.7139e-242
-1.04853e-240
-2.91571e-239
-7.98598e-238
-2.15442e-236
-5.72474e-235
-1.4983e-233
-3.8622e-232
-9.80471e-231
-2.45103e-229
-6.03261e-228
-1.46154e-226
-3.48468e-225
-8.17419e-224
-1.88593e-222
-4.2782e-221
-9.53864e-220
-2.08934e-218
-4.49393e-217
-9.48631e-216
-1.96412e-214
-3.98602e-213
-7.92368e-212
-1.54186e-210
-2.93508e-209
-5.46272e-208
-9.93574e-207
-1.76535e-205
-3.06334e-204
-5.19125e-203
-8.5928e-202
-1.38994e-200
-2.19911e-199
-3.40754e-198
-5.17994e-197
-7.74086e-196
-1.13967e-194
-1.65631e-193
-2.37926e-192
-3.37871e-191
-4.73714e-190
-6.53938e-189
-8.85221e-188
-1.16925e-186
-1.49877e-185
-1.85401e-184
-2.20115e-183
-2.49476e-182
-2.68521e-181
-2.73044e-180
-2.6089e-179
-2.3289e-178
-1.92988e-177
-1.47365e-176
-1.02784e-175
-6.47694e-175
-3.63536e-174
-1.78206e-173
-7.41167e-173
-2.49883e-172
-6.32229e-172
-1.036e-171
2.12795e-169
7.09088e-165
2.31295e-160
7.40697e-156
2.31957e-151
7.08669e-147
2.10504e-142
6.06009e-138
1.68797e-133
4.53658e-129
1.17355e-124
2.9166e-120
6.95077e-116
1.58456e-111
3.44637e-107
7.13878e-103
1.40412e-98
2.61387e-94
4.59056e-90
7.57979e-86
1.17102e-81
1.68459e-77
2.24312e-73
2.74248e-69
3.04579e-65
3.03663e-61
2.67296e-57
2.02935e-53
1.28743e-49
6.55937e-46
2.68841e-42
1.00046e-38
7.63732e-35
8.46713e-31
4.56329e-27
4.78757e-24
2.40368e-21
3.84275e-19
1.58916e-17
2.69134e-16
2.1927e-15
1.14974e-14
4.47975e-14
1.48912e-13
5.07167e-13
1.5004e-12
3.60508e-12
1.06519e-11
6.9546e-11
6.0605e-10
4.81175e-09
2.70198e-08
1.38027e-07
3.42105e-06
8.24747e-06
2.53011e-05
3.96542e-05
4.88796e-05
0.000210088
0.000128174
0.00108405
0.000509904
0.00178218
0.000968968
0.00115752
0.00106013
0.000990401
0.00079564
0.000572622
0.00045771
0.000379509
0.000254292
0.000176245
0.0001187
7.64923e-05
9.15582e-05
7.11674e-05
0.000151411
9.86062e-05
0.000350249
0.000214715
0.00088795
0.000627745
0.00152799
0.000998212
0.00114181
0.000981602
0.000838929
0.000655542
0.00055063
0.000513231
0.000437779
0.000321733
0.000254754
0.000214094
0.000193165
0.000171928
0.000144541
0.000110031
9.92298e-05
6.79193e-05
5.72728e-05
5.27779e-05
5.1191e-05
5.3353e-05
5.06125e-05
5.16881e-05
5.29334e-05
5.27369e-05
5.01526e-05
4.56432e-05
3.99859e-05
3.24177e-05
2.42717e-05
1.81735e-05
1.35816e-05
1.14491e-05
9.75755e-06
1.76143e-05
1.84625e-05
1.70876e-05
1.53114e-05
1.4795e-05
1.45528e-05
1.41385e-05
1.3288e-05
1.21398e-05
1.03307e-05
1.52936e-05
2.34627e-05
2.01258e-05
1.48323e-05
1.11774e-05
7.80556e-06
4.34251e-06
1.53388e-06
4.03016e-05
4.29659e-05
0.000273137
0.000277609
0.00294185
0.0014353
0.0159654
0.00674861
0.024221
0.00295224
0.0103001
0.0146192
0.00418062
0.0337546
0.00976065
0.0221906
0.00216327
0.0044727
0.000455701
0.000455666
4.13265e-05
4.07414e-05
6.76508e-06
5.64673e-06
5.85749e-06
1.00057e-05
1.76136e-05
2.69881e-05
3.69301e-05
4.26962e-05
2.30078e-05
1.36254e-05
1.11358e-05
1.2096e-05
1.33674e-05
1.45868e-05
1.62263e-05
1.92972e-05
2.45884e-05
3.08364e-05
3.65399e-05
3.88964e-05
3.27947e-05
2.94045e-05
2.71626e-05
2.90045e-05
2.99453e-05
3.05668e-05
3.22988e-05
3.82268e-05
4.20101e-05
4.17237e-05
3.8404e-05
3.8412e-05
3.80599e-05
3.85871e-05
4.22224e-05
5.33667e-05
7.1204e-05
9.53714e-05
0.000124205
0.000155456
0.000188328
0.000223631
0.000272405
0.000332302
0.00044813
0.00053459
0.000580726
0.000686607
0.000878501
0.0010195
0.00117041
0.00103677
0.00147164
0.000642027
0.000825264
0.00021092
0.000334718
9.66889e-05
0.000148598
6.59988e-05
8.73869e-05
7.45319e-05
0.000120697
0.000175843
0.000254379
0.00037861
0.000459247
0.000578142
0.0008029
0.000996746
0.00107856
0.0011818
0.00100758
0.00168278
0.000525088
0.000999928
0.000130609
0.000182399
5.82594e-05
3.71561e-05
3.10321e-05
8.12196e-06
4.68145e-06
1.4606e-07
2.83409e-08
5.10318e-09
6.50708e-10
7.48879e-11
1.1077e-11
3.63648e-12
1.5125e-12
5.07845e-13
1.44347e-13
4.17486e-14
1.04343e-14
1.9981e-15
2.56531e-16
1.62707e-17
3.90546e-19
2.53951e-21
5.40411e-24
5.26725e-27
9.8171e-31
8.79226e-35
1.16043e-38
3.22538e-42
8.04321e-46
1.58793e-49
2.5033e-53
3.29096e-57
3.72838e-61
3.72922e-65
3.34922e-69
2.73339e-73
2.04919e-77
1.42246e-81
9.19696e-86
5.56488e-90
3.16629e-94
1.69984e-98
8.63783e-103
4.16835e-107
1.9159e-111
8.40224e-116
3.52509e-120
1.41827e-124
5.48265e-129
2.04021e-133
7.3262e-138
2.5456e-142
8.57298e-147
2.80718e-151
8.96775e-156
2.80153e-160
8.59298e-165
2.59574e-169
7.75007e-174
-4.74249e-179
-2.51824e-178
-1.30253e-178
-4.30881e-179
-1.10738e-179
-2.37521e-180
-4.40567e-181
-7.22931e-182
-1.06669e-182
-1.43298e-183
-1.77022e-184
-2.02781e-185
-2.16972e-186
-2.18289e-187
-2.07798e-188
-1.88325e-189
-1.63491e-190
-1.36791e-191
-1.10967e-192
-8.77615e-194
-6.79888e-195
-5.1776e-196
-3.88405e-197
-2.87187e-198
-2.09153e-199
-1.49799e-200
-1.05302e-201
-7.25097e-203
-4.88244e-204
-3.21069e-205
-2.06016e-206
-1.28921e-207
-7.86686e-209
-4.6814e-210
-2.71749e-211
-1.5394e-212
-8.5141e-214
-4.6002e-215
-2.42957e-216
-1.25509e-217
-6.346e-219
-3.14264e-220
-1.52526e-221
-7.25993e-223
-3.39094e-224
-1.55503e-225
-7.00519e-227
-3.10147e-228
-1.3501e-229
-5.78044e-231
-2.43486e-232
-1.00924e-233
-4.11701e-235
-1.65303e-236
-6.53308e-238
-2.54167e-239
-9.73468e-241
-3.67085e-242
-1.363e-243
-4.98378e-245
-1.79464e-246
-6.36455e-248
-2.22298e-249
-7.64668e-251
-2.59044e-252
-8.64219e-254
-2.8394e-255
-9.18741e-257
-2.92787e-258
-9.19097e-260
-2.84237e-261
-8.66085e-263
-2.60043e-264
-7.69462e-266
-2.24398e-267
-6.45027e-269
-1.82765e-270
-5.10481e-272
-1.40561e-273
-3.81574e-275
-1.02133e-276
-2.69576e-278
-7.01756e-280
-1.80197e-281
-4.56492e-283
-1.14107e-284
-2.81481e-286
-6.85343e-288
-1.64718e-289
-3.9084e-291
-9.15687e-293
-2.11862e-294
-4.84162e-296
-1.09306e-297
-2.43838e-299
-5.37604e-301
-1.17175e-302
-2.52537e-304
-5.38332e-306
-1.13537e-307
-2.34173e-309
-6.70767e-311
0
0
0
0
0
0
0
0
0
0
0
0
0
0
0
0
0
0
0
0
0
0
0
0
0
0
0
0
0
0
0
0
0
0
0
0
0
0
0
0
0
0
0
0
0
0
0
0
0
0
0
0
0
0
0
0
0
0
0
0
0
0
0
0
0
0
0
0
0
0
0
0
0
0
0
0
0
0
0
0
0
0
0
0
0
0
0
0
0
0
0
0
0
0
0
0
0
0
0
0
0
0
0
0
0
0
0
0
0
0
0
0
0
0
0
0
0
0
0
0
0
0
0
0
0
0
0
0
0
0
0
0
0
0
0
0
0
0
0
0
0
0
0
0
0
0
0
0
0
0.000742526
3.86869e-06
1.23802e-08
2.64321e-14
2.6287e-21
2.60786e-21
1.99631e-26
2.02366e-26
2.20985e-31
2.21026e-31
1.7968e-35
1.74933e-35
1.40368e-36
3.83711e-36
1.23127e-35
5.13771e-35
1.36133e-34
2.81263e-34
4.08539e-34
4.65881e-34
2.91349e-34
8.24664e-35
1.25719e-35
9.88356e-37
5.0226e-40
2.35983e-33
5.31873e-35
3.54703e-28
3.93752e-26
7.80825e-24
7.29966e-21
7.571e-21
6.52641e-12
6.6822e-08
9.36974e-06
0.00143179
0
0
0
0
0
0
0
0
0
0
0
0
0
0
0
0
0
0
0
0
0
0
0
0
0
0
0
0
0
0
0
0
0
0
0
0
0
0
0
0
0
0
0
0
0
0
0
0
0
0
0
0
0
0
0
0
0
0
0
0
0
0
0
0
0
0
0
0
0
0
0
0
0
0
0
0
0
0
0
0
0
0
0
0
0
0
0
0
0
0
0
0
0
0
0
0
0
0
0
0
0
0
0
0
0
0
0
0
0
0
0
0
0
0
0
0
0.000773705
0.00299189
0.00144587
0.0026066
0.000264299
0.000422187
5.75596e-06
5.30714e-06
6.02044e-09
7.32324e-09
2.33935e-09
1.84949e-09
1.68382e-09
1.66621e-09
1.69766e-09
1.75684e-09
1.7636e-09
1.73696e-09
1.68608e-09
1.65637e-09
1.77113e-09
2.0431e-09
2.21916e-09
2.37406e-09
2.44745e-09
2.43969e-09
2.10908e-09
1.6372e-09
1.48354e-09
1.68211e-09
1.98496e-09
1.58616e-09
6.46997e-10
5.1173e-10
4.51155e-10
6.05987e-10
1.74029e-09
2.7961e-09
2.75936e-09
1.08492e-09
5.09645e-10
8.14829e-09
9.50558e-08
5.13292e-07
1.60154e-06
3.85666e-06
8.71815e-06
1.94191e-05
3.87464e-05
6.30307e-05
8.20485e-05
9.01905e-05
9.12179e-05
8.27539e-05
7.14965e-05
6.00065e-05
4.23354e-05
3.47897e-05
3.35594e-05
4.85913e-05
7.16002e-05
4.84982e-05
5.64561e-05
2.70121e-05
2.08437e-05
3.30497e-06
5.86473e-06
1.80712e-06
3.22493e-06
5.76056e-06
1.772e-05
4.44166e-05
7.49241e-05
9.17792e-05
9.92252e-05
0.000102771
8.72401e-05
6.5882e-05
5.35618e-05
5.04217e-05
6.24538e-05
0.000114126
4.77606e-05
8.44603e-05
2.55094e-05
2.19249e-05
1.07674e-06
1.41172e-06
2.79964e-07
1.40421e-07
1.3622e-07
4.7612e-09
5.76532e-10
2.17901e-14
1.1722e-15
1.60555e-24
4.40256e-18
8.08814e-20
2.24817e-26
5.26678e-21
5.95923e-22
1.35473e-28
1.65323e-22
4.13565e-23
7.73836e-26
6.99846e-24
3.10593e-25
2.0497e-26
8.04188e-36
5.37231e-29
2.13699e-32
3.36395e-34
6.81215e-36
6.45249e-38
1.95744e-40
1.19695e-43
1.25187e-47
1.23697e-51
1.19239e-55
1.11026e-59
1.00026e-63
8.75756e-68
7.45424e-72
6.1658e-76
4.94669e-80
3.83612e-84
2.87007e-88
2.06804e-92
1.43397e-96
9.56675e-101
6.1411e-105
3.79683e-109
2.26054e-113
1.29744e-117
7.18676e-122
3.84062e-126
1.9825e-130
9.88686e-135
4.76941e-139
2.22428e-143
1.00384e-147
4.38862e-152
1.85733e-156
7.61692e-161
3.02952e-165
1.16872e-169
4.37234e-174
1.50038e-178
-7.05935e-180
-3.80096e-180
-1.5722e-180
-5.31407e-181
-1.53621e-181
-3.89255e-182
-8.79766e-183
-1.79706e-183
-3.35161e-184
-5.7541e-185
-9.15442e-186
-1.35721e-186
-1.88409e-187
-2.45921e-188
-3.02905e-189
-3.53205e-190
-3.91026e-191
-4.12062e-192
-4.14302e-193
-3.98285e-194
-3.66815e-195
-3.24239e-196
-2.75538e-197
-2.25465e-198
-1.77911e-199
-1.35569e-200
-9.98896e-202
-7.12579e-203
-4.92751e-204
-3.3067e-205
-2.15579e-206
-1.36686e-207
-8.43714e-209
-5.07509e-210
-2.97763e-211
-1.70553e-212
-9.54487e-214
-5.22331e-215
-2.79709e-216
-1.46673e-217
-7.53621e-219
-3.79635e-220
-1.87596e-221
-9.09734e-223
-4.33118e-224
-2.02512e-225
-9.30189e-227
-4.19838e-228
-1.8624e-229
-8.12112e-231
-3.48153e-232
-1.46751e-233
-6.08244e-235
-2.47903e-236
-9.93616e-238
-3.91666e-239
-1.51848e-240
-5.79083e-242
-2.17245e-243
-8.01831e-245
-2.9119e-246
-1.04055e-247
-3.65915e-249
-1.26636e-250
-4.31345e-252
-1.44616e-253
-4.77278e-255
-1.55074e-256
-4.96128e-258
-1.56313e-259
-4.85065e-261
-1.48272e-262
-4.46499e-264
-1.32478e-265
-3.87334e-267
-1.11609e-268
-3.16962e-270
-8.87257e-272
-2.44832e-273
-6.66058e-275
-1.78663e-276
-4.72598e-278
-1.23294e-279
-3.17275e-281
-8.05446e-283
-2.01742e-284
-4.9862e-286
-1.21622e-287
-2.92796e-289
-6.95802e-291
-1.63242e-292
-3.78147e-294
-8.65042e-296
-1.95447e-297
-4.36223e-299
-9.61934e-301
-2.09612e-302
-4.51441e-304
-9.61169e-306
-2.02353e-307
-4.18989e-309
-1.06971e-310
-8.13058e-312
0
0
0
0
0
0
0
0
0
0
0
0
0
0
0
0
0
0
0
0
0
0
0
0
0
0
0
0
0
0
0
0
0
0
0
0
0
0
0
0
0
0
0
0
0
0
0
0
0
0
0
0
0
0
0
0
-2.5707e-311
-4.13745e-310
-2.18405e-308
-1.08243e-306
-5.31242e-305
-2.57912e-303
-1.23826e-301
-5.87766e-300
-2.75771e-298
-1.27865e-296
-5.85782e-295
-2.65118e-293
-1.18523e-291
-5.23317e-290
-2.28179e-288
-9.82378e-287
-4.17564e-285
-1.75209e-283
-7.25645e-282
-2.9661e-280
-1.19644e-278
-4.76201e-277
-1.87003e-275
-7.24476e-274
-2.7687e-272
-1.04367e-270
-3.8801e-269
-1.42255e-267
-5.14271e-266
-1.83303e-264
-6.44099e-263
-2.23105e-261
-7.61716e-260
-2.56291e-258
-8.49712e-257
-2.77564e-255
-8.93244e-254
-2.83175e-252
-8.84234e-251
-2.71919e-249
-8.2342e-248
-2.45507e-246
-7.20638e-245
-2.08229e-243
-5.92237e-242
-1.65781e-240
-4.56691e-239
-1.23805e-237
-3.30255e-236
-8.66844e-235
-2.23867e-233
-5.68822e-232
-1.42192e-230
-3.49674e-229
-8.45885e-228
-2.01272e-226
-4.71012e-225
-1.08394e-223
-2.45265e-222
-5.45572e-221
-1.19278e-219
-2.56244e-218
-5.40746e-217
-1.12052e-215
-2.27904e-214
-4.54756e-213
-8.89705e-212
-1.70563e-210
-3.20192e-209
-5.88179e-208
-1.05647e-206
-1.85398e-205
-3.17605e-204
-5.3067e-203
-8.63996e-202
-1.3694e-200
-2.1108e-199
-3.16099e-198
-4.59397e-197
-6.47219e-196
-8.82887e-195
-1.16472e-193
-1.48403e-192
-1.82383e-191
-2.15886e-190
-2.45758e-189
-2.68612e-188
-2.81399e-187
-2.8202e-186
-2.69842e-185
-2.45945e-184
-2.13011e-183
-1.74831e-182
-1.35572e-181
-9.89865e-181
-6.77886e-180
-4.33495e-179
-2.57525e-178
-1.41258e-177
-7.10205e-177
-3.24345e-176
-1.33002e-175
-4.82084e-175
-1.51033e-174
-3.96131e-174
-8.37023e-174
-5.13032e-174
9.63052e-170
2.50046e-165
6.29613e-161
1.53757e-156
3.63856e-152
8.33526e-148
1.8497e-143
3.97225e-139
8.24706e-135
1.65629e-130
3.21386e-126
6.02405e-122
1.08945e-117
1.90166e-113
3.20032e-109
5.18714e-105
8.09873e-101
1.21679e-96
1.75916e-92
2.44764e-88
3.28009e-84
4.24101e-80
5.3008e-76
6.42734e-72
7.57593e-68
8.68624e-64
9.68608e-60
1.04588e-55
1.09155e-51
1.10888e-47
1.0752e-43
1.79007e-40
5.94395e-38
6.26401e-36
3.06499e-34
1.92873e-32
4.73405e-29
7.40031e-36
2.03514e-26
3.2926e-25
8.34802e-24
1.79169e-24
4.83859e-23
1.8444e-22
1.269e-28
6.3657e-22
5.33367e-21
2.11232e-26
7.53142e-20
4.13054e-18
1.50865e-24
1.11602e-15
2.04294e-14
2.81183e-10
3.48831e-09
8.84443e-08
1.3778e-07
1.92464e-07
1.90419e-06
1.03536e-06
2.96831e-05
2.68292e-05
9.26356e-05
5.06138e-05
0.000129836
6.96001e-05
5.0726e-05
5.26003e-05
6.43632e-05
8.62281e-05
0.000101577
9.79701e-05
9.09149e-05
7.50412e-05
4.48978e-05
1.82109e-05
6.19863e-06
3.38875e-06
1.92334e-06
6.36029e-06
3.43797e-06
2.42519e-05
2.83928e-05
5.9242e-05
4.74942e-05
7.28711e-05
4.73889e-05
3.19634e-05
3.32483e-05
4.10485e-05
5.79468e-05
6.81238e-05
7.77561e-05
8.82821e-05
8.92443e-05
8.26941e-05
6.38415e-05
3.96431e-05
2.06379e-05
9.86279e-06
4.56167e-06
1.93789e-06
6.51096e-07
1.4147e-07
2.73511e-08
9.41305e-09
6.58609e-09
5.28448e-09
4.69335e-09
4.60385e-09
4.74678e-09
5.42805e-09
6.37552e-09
7.01665e-09
7.44758e-09
7.52482e-09
7.45168e-09
6.6175e-09
6.4311e-09
6.06072e-09
4.21242e-09
1.49047e-09
2.93635e-10
1.46504e-10
1.41835e-10
1.42419e-10
1.68135e-10
1.98237e-10
2.13218e-10
2.1599e-10
2.16592e-10
2.17705e-10
2.16858e-10
2.12671e-10
1.86081e-10
2.0716e-10
3.22556e-08
6.47334e-09
1.99091e-06
2.28033e-06
0.000239062
0.000149116
0.00176841
0.000924688
0.00189915
0.00047864
8.66791e-06
1.72519e-08
2.0109e-19
2.02287e-19
1.98393e-21
5.73414e-25
2.90607e-26
3.23208e-30
2.26421e-31
1.47098e-34
8.95242e-36
5.56348e-37
1.59692e-36
5.26969e-36
2.30123e-35
6.2034e-35
1.28865e-34
1.8722e-34
2.12925e-34
1.32095e-34
3.6878e-35
5.61981e-36
4.33561e-37
5.01689e-40
8.29802e-34
5.15707e-35
3.51346e-28
4.06235e-27
3.42526e-23
3.47187e-23
2.91104e-18
3.02145e-18
8.61253e-08
2.16954e-05
4.9151e-05
5.67316e-05
6.75345e-05
5.84291e-06
6.96092e-06
2.51485e-17
4.66178e-11
2.50079e-13
1.5107e-12
1.9822e-13
1.55664e-13
1.29556e-13
1.11535e-13
9.53083e-14
7.87395e-14
6.14056e-14
4.44992e-14
2.98773e-14
1.88874e-14
1.14663e-14
6.77624e-15
3.91653e-15
2.21012e-15
1.21165e-15
6.41904e-16
3.27977e-16
1.66831e-16
1.03557e-16
1.03442e-16
1.15787e-16
1.34148e-16
2.25902e-16
2.15658e-14
8.35672e-13
9.08846e-12
3.73545e-11
7.67343e-11
1.00095e-10
1.04281e-10
1.97713e-10
7.86519e-09
1.27626e-07
7.48018e-07
1.80546e-06
2.00461e-06
1.12393e-06
8.42814e-07
6.79599e-07
5.10702e-07
3.91624e-07
3.07895e-07
2.34438e-07
1.70407e-07
1.23775e-07
9.30325e-08
7.08128e-08
6.39291e-08
6.41773e-08
8.8836e-08
1.22683e-07
1.46107e-07
1.65942e-07
9.13553e-08
9.07648e-08
9.62337e-08
1.42983e-06
5.88725e-06
8.00326e-06
8.00262e-06
4.80461e-06
1.90411e-06
1.3525e-06
1.14428e-06
9.06649e-07
6.14926e-07
3.62018e-07
2.1395e-07
1.47484e-07
1.26695e-07
1.33067e-07
2.12385e-07
1.90484e-07
3.08526e-07
8.81705e-08
2.19693e-08
2.84618e-10
1.4678e-10
2.14515e-11
8.4907e-12
6.75982e-12
1.79096e-14
3.3779e-16
1.41343e-22
6.48107e-24
1.59567e-24
4.18119e-25
1.00248e-25
2.23309e-26
4.32266e-27
8.12051e-28
1.34495e-28
1.86291e-29
2.39339e-30
2.77808e-31
3.01396e-32
1.66694e-33
1.62544e-34
7.97672e-36
3.52072e-37
9.89656e-39
2.402e-40
5.18463e-42
1.17817e-43
1.09527e-45
1.98787e-48
3.92872e-52
2.54155e-56
1.91422e-60
1.51347e-64
1.18537e-68
9.31422e-73
7.38129e-77
5.99448e-81
4.99482e-85
4.22956e-89
3.59496e-93
3.02693e-97
2.50458e-101
2.0223e-105
1.57067e-109
1.16152e-113
8.17703e-118
5.49903e-122
3.5432e-126
2.19466e-130
1.31048e-134
7.55286e-139
4.20592e-143
2.26531e-147
1.18174e-151
5.96723e-156
2.91978e-160
1.38616e-164
6.37992e-169
2.85093e-173
1.2356e-177
-9.52749e-181
-7.42844e-181
-3.27035e-181
-1.23226e-181
-4.04965e-182
-1.18082e-182
-3.09711e-183
-7.38619e-184
-1.61539e-184
-3.26241e-185
-6.1195e-186
-1.07141e-186
-1.75836e-187
-2.71522e-188
-3.95808e-189
-5.46299e-190
-7.15801e-191
-8.92505e-192
-1.06127e-192
-1.20587e-193
-1.31165e-194
-1.36805e-195
-1.37031e-196
-1.32002e-197
-1.2245e-198
-1.09518e-199
-9.45479e-201
-7.88717e-202
-6.36392e-203
-4.97129e-204
-3.76303e-205
-2.76248e-206
-1.96834e-207
-1.36235e-208
-9.16603e-210
-5.99866e-211
-3.82097e-212
-2.37026e-213
-1.43274e-214
-8.44349e-216
-4.85384e-217
-2.72316e-218
-1.49174e-219
-7.98253e-221
-4.17451e-222
-2.13436e-223
-1.06734e-224
-5.22243e-226
-2.50119e-227
-1.17295e-228
-5.38794e-230
-2.42507e-231
-1.06984e-232
-4.62744e-234
-1.96298e-235
-8.16887e-237
-3.3358e-238
-1.33703e-239
-5.26142e-241
-2.03326e-242
-7.71825e-244
-2.87864e-245
-1.05511e-246
-3.80144e-248
-1.34657e-249
-4.69061e-251
-1.60707e-252
-5.41658e-254
-1.79633e-255
-5.86292e-257
-1.88361e-258
-5.95774e-260
-1.85547e-261
-5.69082e-263
-1.71916e-264
-5.11637e-266
-1.50031e-267
-4.33527e-269
-1.23456e-270
-3.4652e-272
-9.58769e-274
-2.61532e-275
-7.03415e-277
-1.86564e-278
-4.88005e-280
-1.25907e-281
-3.20444e-283
-8.046e-285
-1.99333e-286
-4.87303e-288
-1.17566e-289
-2.79948e-291
-6.58003e-293
-1.52679e-294
-3.49766e-296
-7.91164e-298
-1.76723e-299
-3.8985e-301
-8.49439e-303
-1.82836e-304
-3.88811e-306
-8.16812e-308
-1.6567e-309
-7.24122e-311
-1.34276e-311
0
0
0
0
0
0
0
0
0
0
0
0
0
0
0
0
0
0
0
0
0
0
0
0
0
0
0
0
0
0
0
0
0
0
0
0
0
0
0
0
0
0
0
0
0
0
0
0
0
0
0
0
0
0
0
0
0
0
0
0
0
0
0
0
0
0
0
0
0
0
0
0
0
0
0
0
0
0
0
0
0
0
0
0
0
0
0
0
0
0
0
0
0
0
0
0
0
0
0
0
0
0
0
0
0
0
0
0
0
0
0
0
0
0
0
0
0
0
0
0
0
0
0
0
0
0
0
0
0
0
0
0
0
0
0
0
0
0
0
0
0
0
0
0
0
0
0
0
0
0
0
0
0
0
0
0
0
0
0
0
0
0
0
0
0
-2.40572e-312
-2.66101e-311
-1.50928e-310
-8.76572e-309
-4.36042e-307
-2.14753e-305
-1.04526e-303
-5.0268e-302
-2.3882e-300
-1.12072e-298
-5.19424e-297
-2.37729e-295
-1.07435e-293
-4.79386e-292
-2.11188e-290
-9.18495e-289
-3.94348e-287
-1.67128e-285
-6.99134e-284
-2.88655e-282
-1.17618e-280
-4.72947e-279
-1.87653e-277
-7.34623e-276
-2.83727e-274
-1.08098e-272
-4.06233e-271
-1.50564e-269
-5.50312e-268
-1.98328e-266
-7.04686e-265
-2.46824e-263
-8.52129e-262
-2.8994e-260
-9.72166e-259
-3.2115e-257
-1.04505e-255
-3.34939e-254
-1.05712e-252
-3.28514e-251
-1.00502e-249
-3.02613e-248
-8.96626e-247
-2.61373e-245
-7.49457e-244
-2.1134e-242
-5.85967e-241
-1.59708e-239
-4.27808e-238
-1.126e-236
-2.91137e-235
-7.39297e-234
-1.8433e-232
-4.51146e-231
-1.0836e-229
-2.55345e-228
-5.90165e-227
-1.33745e-225
-2.97106e-224
-6.46748e-223
-1.37914e-221
-2.87992e-220
-5.88707e-219
-1.17762e-217
-2.30424e-216
-4.40857e-215
-8.24389e-214
-1.50606e-212
-2.68681e-211
-4.67852e-210
-7.94783e-209
-1.31655e-207
-2.12541e-206
-3.34214e-205
-5.11601e-204
-7.61906e-203
-1.10318e-201
-1.5518e-200
-2.11908e-199
-2.80697e-198
-3.60374e-197
-4.48041e-196
-5.38931e-195
-6.26577e-194
-7.03383e-193
-7.61556e-192
-7.94305e-191
-7.97064e-190
-7.6846e-189
-7.10765e-188
-6.29664e-187
-5.33348e-186
-4.31126e-185
-3.31882e-184
-2.42749e-183
-1.68277e-182
-1.10248e-181
-6.80489e-181
-3.94317e-180
-2.13645e-179
-1.07735e-178
-5.02935e-178
-2.15981e-177
-8.46789e-177
-3.00239e-176
-9.50567e-176
-2.64037e-175
-6.29484e-175
-1.18567e-174
2.18416e-173
5.23044e-169
1.13807e-164
2.40095e-160
4.91499e-156
9.75018e-152
1.87229e-147
3.48238e-143
6.2649e-139
1.08909e-134
1.8277e-130
2.95774e-126
4.60301e-122
6.86674e-118
9.79083e-114
1.32973e-109
1.72084e-105
2.13769e-101
2.59205e-97
3.08954e-93
3.64761e-89
4.31851e-85
5.18556e-81
6.37162e-77
8.0027e-73
1.01193e-68
1.28306e-64
1.61134e-60
2.1605e-56
3.43556e-52
1.84743e-48
1.04878e-45
1.13863e-43
4.85262e-42
2.20086e-40
9.05729e-39
3.2206e-37
7.34018e-36
1.52104e-34
1.4767e-33
2.91567e-32
2.61646e-31
2.22606e-30
1.74289e-29
1.2598e-28
7.61036e-28
4.05571e-27
2.09805e-26
9.4152e-26
3.92734e-25
1.49924e-24
6.108e-24
1.25328e-22
1.25013e-16
9.76949e-15
3.03752e-12
5.73251e-12
1.11646e-11
1.75319e-10
1.98422e-10
3.73511e-08
1.05108e-07
3.79361e-07
2.21914e-07
3.2042e-07
1.56572e-07
1.2533e-07
1.42559e-07
2.06916e-07
3.52207e-07
5.98514e-07
8.83804e-07
1.1201e-06
1.33424e-06
1.89664e-06
4.81326e-06
8.07415e-06
8.07501e-06
5.92252e-06
1.42937e-06
9.87703e-08
9.714e-08
1.00239e-07
1.75183e-07
1.46034e-07
1.15769e-07
7.86996e-08
5.832e-08
5.94062e-08
6.82274e-08
9.02445e-08
1.22933e-07
1.68985e-07
2.31026e-07
3.03512e-07
3.89876e-07
5.11838e-07
6.81726e-07
8.57163e-07
1.11554e-06
1.82049e-06
1.74528e-06
8.09791e-07
1.53454e-07
1.04105e-08
2.715e-10
1.00821e-10
8.42122e-11
5.87557e-11
2.75394e-11
6.81826e-12
6.64028e-13
1.99216e-14
1.05499e-15
7.24305e-16
6.65314e-16
6.48007e-16
6.8207e-16
1.02908e-15
2.07214e-15
3.08397e-15
3.61042e-15
4.07592e-15
4.74096e-15
5.38798e-15
7.18509e-15
9.90587e-15
1.45215e-14
2.14442e-14
3.056e-14
4.08925e-14
5.04923e-14
5.71612e-14
6.63345e-14
5.90715e-14
6.02236e-14
3.3311e-13
1.91567e-13
9.25737e-13
2.03984e-15
2.56189e-06
1.99439e-06
3.15263e-05
2.49821e-05
1.98398e-05
2.34875e-08
1.46905e-16
3.0076e-19
3.66245e-22
2.57501e-24
2.5187e-29
2.53374e-29
4.90702e-34
4.86758e-34
1.56159e-37
1.96703e-37
5.25916e-37
1.81244e-36
8.48034e-36
2.3341e-35
4.88282e-35
7.09195e-35
8.03061e-35
4.90123e-35
1.32199e-35
1.98557e-36
1.52737e-37
5.01272e-40
1.67638e-34
4.99923e-35
5.15707e-35
6.07563e-26
1.93848e-24
5.08194e-21
5.18055e-21
7.32445e-14
1.21897e-07
0
3.21998e-08
9.83105e-08
2.1188e-15
4.42818e-09
2.48396e-17
1.50453e-15
1.76474e-15
1.5533e-15
1.30924e-15
1.18592e-15
1.08367e-15
9.6547e-16
8.11676e-16
6.32287e-16
4.18288e-16
2.61717e-16
1.57308e-16
9.14774e-17
5.1983e-17
2.92543e-17
1.66641e-17
1.0052e-17
7.00192e-18
6.06075e-18
6.14549e-18
2.0745e-17
1.71103e-16
6.49733e-16
1.36125e-15
2.37243e-15
1.24867e-14
8.24731e-13
1.80177e-11
1.26325e-10
4.06904e-10
7.86396e-10
1.06599e-09
1.14623e-09
1.14571e-09
1.08781e-09