/*--------------------------------*- C++ -*----------------------------------*\
| =========                 |                                                 |
| \\      /  F ield         | OpenFOAM: The Open Source CFD Toolbox           |
|  \\    /   O peration     | Version:  2.2.1                                 |
|   \\  /    A nd           | Web:      www.OpenFOAM.org                      |
|    \\/     M anipulation  |                                                 |
\*---------------------------------------------------------------------------*/
FoamFile
{
    version     2.0;
    format      ascii;
    class       volScalarField;
    location    "4.5e-05";
    object      p;
}
// * * * * * * * * * * * * * * * * * * * * * * * * * * * * * * * * * * * * * //

dimensions      [1 -1 -2 0 0 0 0];

internalField   nonuniform List<scalar> 
22464
(
102.705
669.773
4023.62
20208.5
1960.46
5218.95
782.256
290.229
63.0025
20.7705
-19.5989
-23.0693
-6.03853
22.6062
46.0525
60.4067
61.0615
52.3357
36.9726
29.1248
27.0887
28.658
31.5563
36.2788
41.3712
46.078
49.0289
49.6353
48.3499
44.7805
41.214
38.595
38.2202
38.8362
38.8513
39.1627
39.7544
40.9608
42.554
43.5888
43.7585
44.3673
43.4371
42.5553
40.8694
39.7523
38.6693
37.8086
36.965
36.1625
34.9419
33.4014
31.8902
29.2496
27.1499
26.8156
21.6083
14.3192
15.6834
34.8984
51.6842
74.5332
107.641
240.929
400.111
219.223
283.524
51.7779
49.1908
17.49
13.9359
14.2928
14.8897
18.1875
21.008
24.3768
24.5102
19.781
17.3698
26.3592
36.9294
40.7899
50.4687
64.887
153.576
385.552
357.341
468.85
113.757
50.4826
26.8792
16.1528
15.1569
14.2784
15.0446
15.7535
14.7509
13.3451
12.157
11.1345
10.1396
9.3137
8.74202
8.4208
8.26691
8.20283
8.17284
8.15144
8.13063
8.10818
8.08476
8.06063
8.03579
8.01025
7.98401
7.9571
7.92953
7.90133
7.87252
7.84312
7.81313
7.78258
7.75148
7.71985
7.68769
7.65501
7.62184
7.58817
7.55401
7.51938
7.48429
7.44874
7.41274
7.3763
7.33943
7.30213
7.26443
7.22632
7.18781
7.14892
7.10964
7.07
7.02999
6.98962
6.94891
6.90786
6.86647
6.82477
6.78275
6.74042
6.69779
6.65487
6.61167
6.56819
6.52445
6.48045
6.43619
6.39169
6.34695
6.30197
6.25678
6.21136
6.16573
6.11989
6.07385
6.0276
5.98115
5.93451
5.88768
5.84066
5.79346
5.74607
5.69851
5.65077
5.60287
5.55479
5.50655
5.45814
5.40957
5.36085
5.31198
5.26295
5.21378
5.16446
5.115
5.0654
5.01566
4.96579
4.91579
4.86566
4.8154
4.76502
4.71452
4.66391
4.61317
4.56232
4.51136
4.46028
4.4091
4.35782
4.30643
4.25494
4.20335
4.15167
4.09989
4.04802
3.99606
3.94401
3.89187
3.83966
3.78736
3.73499
3.68255
3.63003
3.57745
3.5248
3.47209
3.41932
3.3665
3.31364
3.26072
3.20777
3.15478
3.10176
3.04871
2.99564
2.94255
2.88946
2.83636
2.78327
2.73018
2.67711
2.62406
2.57104
2.51805
2.46512
2.41223
2.35941
2.30666
2.254
2.20142
2.14894
2.09657
2.04432
1.99219
1.94021
1.88838
1.83672
1.78523
1.73392
1.68282
1.63192
1.58125
1.53082
1.48064
1.43073
1.38109
1.33174
1.2827
1.23397
1.18556
1.13748
1.08974
1.04235
0.995318
0.948638
0.90231
0.856324
0.81066
0.765294
0.720204
0.67538
0.630843
0.586583
0.542561
0.498747
0.45538
0.412312
0.369151
0.326728
0.281532
0.234468
0.183459
0.129342
0.0764487
0.0756956
0.129471
0.184587
0.235336
0.282037
0.324473
0.367306
0.410092
0.453177
0.496544
0.540189
0.584116
0.628309
0.672765
0.717505
0.762544
0.807905
0.853612
0.899684
0.946128
0.992941
1.04011
1.08762
1.13545
1.18358
1.232
1.28071
1.3297
1.37896
1.4285
1.47832
1.52841
1.57877
1.6294
1.68028
1.73141
1.78278
1.83436
1.88614
1.93812
1.99026
2.04255
2.09498
2.14753
2.20019
2.25295
2.30578
2.35869
2.41166
2.46468
2.51775
2.57084
2.62397
2.67711
2.73027
2.78343
2.8366
2.88976
2.9429
2.99604
3.04915
3.10223
3.15528
3.2083
3.26128
3.31421
3.36709
3.41991
3.47268
3.52539
3.57804
3.63062
3.68312
3.73556
3.78792
3.8402
3.8924
3.94452
3.99655
4.04849
4.10034
4.1521
4.20377
4.25534
4.30682
4.35819
4.40947
4.46064
4.51171
4.56267
4.61352
4.66426
4.71489
4.7654
4.81579
4.86606
4.9162
4.96622
5.01611
5.06587
5.11549
5.16497
5.21431
5.26351
5.31255
5.36144
5.41017
5.45875
5.50716
5.5554
5.60348
5.65138
5.6991
5.74664
5.79401
5.84118
5.88817
5.93496
5.98156
6.02797
6.07417
6.12017
6.16596
6.21153
6.25689
6.30203
6.34694
6.39162
6.43605
6.48024
6.52417
6.56785
6.61125
6.65437
6.69721
6.73976
6.78201
6.82396
6.8656
6.90692
6.94791
6.98857
7.02888
7.06885
7.10845
7.14769
7.18655
7.22502
7.2631
7.30079
7.33806
7.37492
7.41135
7.44733
7.48287
7.51795
7.55256
7.5867
7.62034
7.65349
7.68613
7.71825
7.74983
7.78087
7.81134
7.84123
7.87053
7.89922
7.92728
7.95469
7.98143
8.00749
8.03283
8.05745
8.08134
8.1045
8.12667
8.14718
8.16821
8.19768
8.26085
8.41309
8.73164
9.30015
10.1253
11.1225
12.1443
13.3222
14.716
15.775
15.1788
14.0097
14.5324
14.9011
23.1336
49.7594
100.188
484.382
309.666
392.944
164.357
65.0364
50.475
41.2932
37.4324
26.1904
17.1882
19.7343
24.6225
24.5585
21.1
18.0479
14.3553
14.094
13.6147
17.4442
50.8793
53.3107
304.58
209.49
388.22
228.27
102.583
72.8058
50.0857
33.4519
14.7543
13.4458
20.2249
27.6296
28.9205
30.0756
31.0224
33.2227
35.8259
39.0731
40.7698
39.8967
38.867
38.6536
38.5661
39.0819
39.1695
39.3313
39.6073
40.5869
41.8156
42.9994
43.1768
42.9444
41.8831
40.3209
38.5569
37.5145
36.0084
35.5195
34.8746
35.328
36.4776
38.5351
41.2887
44.3565
47.1228
49.1998
50.2163
49.6216
48.9755
50.8809
52.2249
52.5188
48.9809
38.9582
6.06739
-7.07031
-3.81269
10.0108
46.9371
202.827
601.188
3587.98
1442.26
15564.2
2973.4
500.628
86.1462
0.0674759
0.0591494
0.0524435
0.0456405
0.0396925
0.0336894
0.0284341
0.0246491
0.0220139
0.0199519
0.0180436
0.0160571
0.0138729
0.0114174
0.00865135
0.00555876
0.00213598
-0.00161577
-0.00569371
-0.0100942
-0.0148123
-0.0198414
-0.0251724
-0.0307941
-0.0366924
-0.0428511
-0.0492517
-0.0558735
-0.0626943
-0.0696898
-0.0768342
-0.0841008
-0.0914616
-0.0988877
-0.106349
-0.113817
-0.121259
-0.128646
-0.135947
-0.143133
-0.150171
-0.157035
-0.163694
-0.170121
-0.176289
-0.182172
-0.187745
-0.192986
-0.197872
-0.202383
-0.206499
-0.210205
-0.213484
-0.216324
-0.218711
-0.220636
-0.222092
-0.223071
-0.223571
-0.223588
-0.223123
-0.222177
-0.220755
-0.218862
-0.216505
-0.213695
-0.210442
-0.206761
-0.202666
-0.198174
-0.193303
-0.188074
-0.182508
-0.176629
-0.17046
-0.164028
-0.157359
-0.150481
-0.143423
-0.136215
-0.128886
-0.121468
-0.113992
-0.106488
-0.0989887
-0.0915246
-0.0841265
-0.0768244
-0.0696474
-0.0626233
-0.0557789
-0.0491386
-0.0427252
-0.0365591
-0.030658
-0.0250368
-0.0197078
-0.0146804
-0.00996203
-0.00555761
-0.00147025
0.00229913
0.00575121
0.00888909
0.011727
0.0142836
0.0165685
0.0184582
0.0197082
0.0202618
0.020697
0.022217
0.0255072
0.0294705
0.0356537
0.0461008
0.0560763
0.0661355
92.6408
-15.6258
-1.50246
-2.25037
-2.6638
-2.2846
-1.89566
-1.59947
-1.36264
-1.16891
-1.01201
-0.886356
-0.786474
-0.707652
-0.646132
-0.59902
-0.564175
-0.540082
-0.525794
-0.520933
-0.525703
-0.540889
-0.567944
-0.608995
-0.666787
-0.744908
-0.848409
-0.984195
-1.16084
-1.38797
-1.67811
-2.06057
-2.59244
-3.15586
-2.77653
-2.26226
-19.0645
126.913
0.111311
0.165733
0.217453
0.266825
0.309327
0.352827
0.396352
0.440401
0.48469
0.529211
0.573917
0.618802
0.663872
0.709167
0.754698
0.800487
0.846562
0.892948
0.939656
0.986691
1.03405
1.08171
1.12967
1.17792
1.22644
1.27523
1.32428
1.3736
1.42317
1.473
1.5231
1.57344
1.62404
1.67488
1.72595
1.77724
1.82873
1.88042
1.93229
1.98432
2.0365
2.08881
2.14125
2.19378
2.24642
2.29913
2.35191
2.40476
2.45766
2.5106
2.56357
2.61658
2.6696
2.72264
2.77569
2.82873
2.88177
2.93481
2.98782
3.04082
3.09379
3.14673
3.19964
3.2525
3.30533
3.3581
3.41082
3.46348
3.51609
3.56863
3.6211
3.6735
3.72584
3.77809
3.83027
3.88237
3.93439
3.98632
4.03816
4.08991
4.14157
4.19314
4.24461
4.29599
4.34726
4.39843
4.4495
4.50047
4.55133
4.60207
4.65271
4.70323
4.75363
4.80392
4.85408
4.90411
4.95402
5.0038
5.05344
5.10295
5.15232
5.20154
5.25062
5.29954
5.34831
5.39692
5.44537
5.49366
5.54177
5.58972
5.63749
5.68508
5.7325
5.77972
5.82676
5.87361
5.92027
5.96672
6.01298
6.05904
6.10489
6.15053
6.19595
6.24116
6.28614
6.33089
6.37541
6.41968
6.46371
6.50747
6.55097
6.5942
6.63715
6.67981
6.72218
6.76425
6.80602
6.84747
6.8886
6.9294
6.96986
7.00998
7.04974
7.08914
7.12817
7.16682
7.20508
7.24294
7.28041
7.31746
7.35409
7.39028
7.42603
7.46133
7.49616
7.53052
7.56439
7.59777
7.63065
7.66301
7.69483
7.72611
7.75682
7.78696
7.8165
7.84542
7.87369
7.9013
7.92821
7.95439
7.97979
8.00436
8.028
8.05062
8.07204
8.09192
8.10938
8.12251
8.12834
8.12403
8.10997
8.09065
8.07411
8.06703
8.07374
8.07822
8.04284
7.96819
7.93542
8.17782
8.27624
8.15424
8.52542
5.85917
11.113
-0.40033
35.3793
13.788
57.9218
21.5335
28.6198
29.4488
26.0262
18.2669
11.9502
12.2851
11.9991
9.51399
9.3087
9.03813
7.82138
7.22215
5.9632
8.20745
5.21611
11.6244
4.23854
25.5022
15.4741
40.6957
20.9303
29.0064
25.5003
17.8981
11.4331
9.88599
12.3466
8.80436
6.72749
8.05405
8.9689
9.05877
8.35538
7.40295
6.6056
6.33168
6.72563
6.97779
6.90569
6.85229
6.86121
6.80938
6.82498
6.7678
6.68753
6.52095
6.37819
6.26347
6.15127
6.02578
5.97153
5.82916
5.71456
5.58271
5.4093
5.30257
5.25797
5.12598
4.99409
4.81888
4.66276
4.52428
4.4086
4.34919
4.40688
4.28955
3.79297
3.051
1.96957
-0.310865
-4.20068
-5.77515
4.61422
-7.13162
-8.08486
-29.3731
8.08884
-83.6022
653.034
148.156
938.119
-247.511
-27.5068
-37.1228
-292.344
1306.05
229.341
890.631
-104.673
18.4874
-39.1431
-12.2158
-17.4387
-1.76019
-4.13687
-3.50302
-1.27832
0.947035
1.94861
3.08469
4.10138
5.00696
4.96706
4.77885
4.65975
4.64667
4.698
4.86699
5.0897
5.2861
5.44252
5.67698
5.95071
6.1576
6.13008
6.07196
6.18098
6.29223
6.41345
6.51793
6.52437
6.62256
6.70026
6.78432
6.82243
6.90552
6.93013
6.96502
6.92238
6.8429
6.72136
6.8197
7.41431
8.2646
8.89599
9.10579
8.60643
7.35346
8.8207
12.5088
10.5484
12.2489
19.1974
26.7199
30.0274
22.0627
37.0839
15.5998
23.763
4.83344
11.6031
5.5038
8.32334
6.11393
7.27909
7.91505
9.11268
9.45209
9.68239
12.0557
12.3916
12.3146
18.8319
26.5558
30.3291
30.1671
23.6044
51.9782
13.0573
31.8242
1.17009
11.3129
6.8674
8.51926
8.54813
8.3602
8.34213
8.00949
8.01441
8.06665
8.09771
8.08956
8.07981
8.08448
8.09934
8.1175
8.13073
8.1344
8.12805
8.11444
8.09656
8.07629
8.05453
8.03161
8.00768
7.98287
7.95725
7.93087
7.90378
7.876
7.84758
7.81854
7.78889
7.75867
7.72788
7.69653
7.66466
7.63226
7.59935
7.56594
7.53204
7.49765
7.4628
7.42749
7.39172
7.35551
7.31886
7.28179
7.2443
7.20641
7.16812
7.12943
7.09036
7.05092
7.01111
6.97094
6.93042
6.88956
6.84837
6.80685
6.76501
6.72286
6.68041
6.63767
6.59465
6.55134
6.50777
6.46393
6.41984
6.3755
6.33092
6.2861
6.24107
6.1958
6.15033
6.10464
6.05874
6.01264
5.96634
5.91984
5.87315
5.82627
5.7792
5.73195
5.68452
5.63691
5.58914
5.54119
5.49307
5.44479
5.39635
5.34775
5.29899
5.25008
5.20103
5.15182
5.10248
5.05299
5.00337
4.95361
4.90372
4.8537
4.80355
4.75328
4.70288
4.65237
4.60174
4.55099
4.50013
4.44916
4.39808
4.3469
4.29561
4.24422
4.19274
4.14116
4.08948
4.03771
3.98585
3.93391
3.88188
3.82976
3.77757
3.72531
3.67297
3.62056
3.56808
3.51554
3.46294
3.41029
3.35758
3.30482
3.25202
3.19918
3.14631
3.0934
3.04047
2.98752
2.93455
2.88158
2.8286
2.77562
2.72265
2.6697
2.61677
2.56387
2.51101
2.45819
2.40542
2.35272
2.30009
2.24753
2.19506
2.14269
2.09043
2.03828
1.98625
1.93436
1.88262
1.83104
1.77962
1.72839
1.67734
1.6265
1.57587
1.52547
1.47531
1.4254
1.37575
1.32638
1.27728
1.22848
1.17999
1.13179
1.08391
1.03635
0.98911
0.942187
0.895576
0.849264
0.80323
0.757441
0.711861
0.666494
0.621377
0.576393
0.531513
0.486806
0.442579
0.399074
0.35527
0.312873
0.264682
0.216215
0.164511
0.11145
0.0954612
0.0862914
0.081669
0.0830418
0.0821978
0.0781743
0.0747919
0.0723968
0.070353
0.0683082
0.0661712
0.0639092
0.0614297
0.0586745
0.0556249
0.0522792
0.0486408
0.0447134
0.0404994
0.0360011
0.0312223
0.0261688
0.0208492
0.0152753
0.00946128
0.0034237
-0.00281873
-0.0092455
-0.0158343
-0.0225611
-0.029401
-0.0363282
-0.0433158
-0.0503361
-0.057361
-0.0643626
-0.0713121
-0.0781811
-0.0849412
-0.0915643
-0.0980227
-0.10429
-0.110339
-0.116145
-0.121684
-0.126932
-0.131867
-0.13647
-0.14072
-0.144599
-0.148092
-0.151184
-0.153862
-0.156115
-0.157933
-0.159308
-0.160236
-0.160712
-0.160734
-0.160302
-0.159418
-0.158085
-0.156309
-0.154097
-0.151458
-0.148403
-0.144945
-0.141097
-0.136875
-0.132297
-0.127381
-0.122148
-0.11662
-0.110818
-0.104767
-0.0984923
-0.0920193
-0.085375
-0.0785868
-0.0716827
-0.0646916
-0.0576426
-0.0505653
-0.0434895
-0.0364449
-0.0294608
-0.0225661
-0.015789
-0.00915642
-0.00269401
0.00357446
0.00962783
0.0154477
0.0210194
0.0263315
0.0313762
0.0361489
0.0406468
0.0448689
0.0488158
0.0524892
0.0558902
0.0590183
0.0618761
0.0645094
0.0668876
0.0689868
0.0708457
0.0727055
0.0749477
0.0790096
0.0859268
0.0846726
0.0761772
0.0825012
0.0941057
14.714
0.681153
-2.16104
-2.75418
-2.62008
-2.29554
-1.97593
-1.6937
-1.45344
-1.25481
-1.09353
-0.96384
-0.860367
-0.778817
-0.715979
-0.66941
-0.63736
-0.618702
-0.61299
-0.620514
-0.642242
-0.67987
-0.735626
-0.812442
-0.914448
-1.04726
-1.21785
-1.4338
-1.70141
-2.02151
-2.38709
-2.75749
-2.8768
-1.92296
2.6711
19.6178
0.146822
0.134532
0.128196
0.136307
0.136485
0.128622
0.12405
0.121495
0.119213
0.116885
0.114587
0.112296
0.109831
0.107085
0.104048
0.100732
0.0971487
0.0933065
0.0892095
0.0848591
0.0802571
0.0754073
0.0703167
0.0649951
0.059455
0.0537116
0.0477818
0.0416845
0.0354402
0.0290711
0.0226001
0.0160512
0.00944934
0.00282013
-0.00381056
-0.0104167
-0.0169719
-0.0234493
-0.0298226
-0.0360657
-0.0421528
-0.0480588
-0.0537592
-0.0592304
-0.0644496
-0.0693951
-0.0740463
-0.0783838
-0.0823894
-0.0860464
-0.0893396
-0.0922552
-0.0947812
-0.0969069
-0.0986236
-0.0999241
-0.100803
-0.101257
-0.101284
-0.100883
-0.100057
-0.098808
-0.0971422
-0.0950663
-0.0925886
-0.0897193
-0.08647
-0.0828536
-0.0788849
-0.0745801
-0.0699567
-0.0650334
-0.0598304
-0.0543685
-0.04867
-0.0427578
-0.0366561
-0.0303893
-0.0239831
-0.0174633
-0.0108569
-0.00419089
0.00250674
0.00920812
0.0158851
0.0225095
0.0290536
0.0354903
0.0417934
0.0479381
0.0539014
0.0596634
0.0652077
0.070522
0.0755986
0.0804337
0.0850274
0.0893815
0.0934996
0.0973871
0.101046
0.104463
0.1076
0.110494
0.113094
0.115372
0.117466
0.119703
0.122012
0.123567
0.125336
0.137546
0.143575
0.115312
0.127305
0.146077
-49.1025
77.1272
8.06086
109.326
-30.7527
24.3821
-11.564
-1.04719
-6.20314
-3.00654
-2.22705
-1.66135
-0.502762
0.790639
1.81922
2.69961
3.44042
4.01724
4.33579
4.45365
4.50571
4.57396
4.6806
4.83406
5.01514
5.19611
5.37059
5.55373
5.73286
5.88148
5.97581
6.04464
6.13182
6.22792
6.32793
6.42071
6.49037
6.55942
6.6335
6.72315
6.81688
6.91788
7.02571
7.14827
7.28707
7.42513
7.49118
7.46241
7.38419
7.58597
7.97706
8.19864
8.3014
8.1251
7.76621
7.98873
8.07092
7.74793
7.06953
6.17031
8.78663
7.91053
9.26943
10.4711
10.3647
6.69549
8.84428
7.83427
9.06284
9.12765
8.77634
8.00909
8.73318
9.02564
8.80892
8.67954
8.63141
8.29306
7.59673
7.59168
7.13816
10.7727
6.20619
10.6073
12.3725
12.4569
6.69186
8.64998
7.76149
8.13688
8.2526
8.2826
8.2465
8.14308
8.09748
8.09382
8.09624
8.09174
8.08635
8.08586
8.09013
8.09598
8.09953
8.0981
8.09089
8.07865
8.06268
8.04409
8.02363
8.00172
7.97862
7.9545
7.92947
7.90361
7.87699
7.84964
7.82161
7.79293
7.76363
7.73373
7.70325
7.67221
7.64062
7.6085
7.57586
7.54272
7.50908
7.47495
7.44034
7.40527
7.36974
7.33377
7.29735
7.26051
7.22325
7.18557
7.1475
7.10903
7.07017
7.03094
6.99133
6.95136
6.91104
6.87038
6.82938
6.78805
6.74641
6.70445
6.66218
6.61962
6.57678
6.53365
6.49025
6.44658
6.40266
6.35849
6.31408
6.26943
6.22455
6.17945
6.13413
6.0886
6.04285
5.9969
5.95075
5.9044
5.85786
5.81112
5.76419
5.71708
5.66979
5.62232
5.57468
5.52686
5.47888
5.43073
5.38241
5.33394
5.28531
5.23652
5.18759
5.13851
5.08928
5.03991
4.99041
4.94076
4.89099
4.84108
4.79104
4.74088
4.6906
4.6402
4.58967
4.53904
4.48828
4.43742
4.38645
4.33537
4.28419
4.23291
4.18153
4.13006
4.07849
4.02682
3.97507
3.92323
3.87131
3.81931
3.76723
3.71507
3.66284
3.61054
3.55818
3.50575
3.45326
3.40072
3.34813
3.29549
3.24281
3.19008
3.13733
3.08454
3.03173
2.9789
2.92605
2.8732
2.82034
2.76749
2.71464
2.66181
2.609
2.55622
2.50348
2.45078
2.39814
2.34555
2.29303
2.24059
2.18823
2.13597
2.08381
2.03176
1.97983
1.92803
1.87637
1.82487
1.77352
1.72235
1.67136
1.62057
1.56997
1.5196
1.46945
1.41953
1.36986
1.32045
1.2713
1.22242
1.17382
1.1255
1.07747
1.02972
0.982266
0.93509
0.888191
0.841553
0.795146
0.748909
0.702793
0.656915
0.611167
0.565415
0.519671
0.474024
0.428703
0.383759
0.338603
0.30568
0.245156
0.196794
0.197403
0.258402
0.291747
0.336076
0.381228
0.426597
0.471969
0.517469
0.563014
0.608611
0.654294
0.700143
0.746164
0.792384
0.838833
0.885541
0.932528
0.979802
1.02736
1.0752
1.12331
1.17168
1.22031
1.26919
1.31831
1.36768
1.4173
1.46715
1.51725
1.56758
1.61815
1.66895
1.71996
1.77118
1.8226
1.8742
1.92597
1.9779
2.02996
2.08216
2.13448
2.18689
2.2394
2.292
2.34466
2.39738
2.45015
2.50297
2.55582
2.60871
2.66161
2.71452
2.76745
2.82038
2.8733
2.92621
2.97911
3.03199
3.08485
3.13767
3.19046
3.24321
3.29592
3.34858
3.40119
3.45375
3.50624
3.55867
3.61104
3.66333
3.71556
3.76771
3.81978
3.87177
3.92369
3.97551
4.02725
4.0789
4.13045
4.18192
4.23328
4.28455
4.33572
4.38679
4.43775
4.48861
4.53936
4.59
4.64052
4.69093
4.74122
4.7914
4.84144
4.89136
4.94116
4.99082
5.04034
5.08973
5.13898
5.18808
5.23703
5.28583
5.33448
5.38296
5.43128
5.47944
5.52742
5.57524
5.62287
5.67033
5.7176
5.76469
5.81159
5.85829
5.9048
5.95112
5.99723
6.04313
6.08883
6.13431
6.17958
6.22462
6.26944
6.31403
6.35838
6.40249
6.44634
6.48994
6.53326
6.57631
6.61908
6.66156
6.70374
6.74563
6.7872
6.82846
6.86939
6.90999
6.95025
6.99017
7.02972
7.06891
7.10773
7.14616
7.1842
7.22185
7.25909
7.29591
7.3323
7.36826
7.40377
7.43881
7.47339
7.50749
7.5411
7.57421
7.6068
7.63887
7.6704
7.70136
7.73175
7.76155
7.79072
7.81926
7.84712
7.87428
7.9007
7.92632
7.95109
7.97492
7.99769
8.01922
8.03926
8.05736
8.07278
8.08437
8.09081
8.0913
8.08653
8.07908
8.07262
8.07015
8.07157
8.07054
8.05933
8.04715
8.06941
8.14538
8.17876
8.12547
8.07357
7.53289
8.7227
6.24835
12.9041
12.8572
10.8733
6.33159
11.3284
7.06893
7.60653
7.54638
8.24648
8.55311
8.56573
8.69266
8.92834
8.70348
7.97402
8.74944
9.05347
9.03744
7.75764
8.90475
6.51346
10.6322
10.7218
9.25417
7.60375
8.99028
6.1112
7.04353
7.71393
8.0988
7.90915
7.58081
8.00066
8.29073
8.24227
7.97204
7.52121
7.36243
7.42852
7.37353
7.33451
7.2947
7.13705
6.9948
6.88625
6.80757
6.74142
6.65444
6.55124
6.43068
6.31006
6.1965
6.08878
5.98331
5.88144
5.76374
5.64165
5.50923
5.36589
5.24169
5.13585
5.01165
4.86993
4.71357
4.55654
4.40431
4.2596
4.123
3.96185
3.67649
3.20254
2.52335
1.55249
0.15916
-1.24065
-1.27708
-0.064794
-2.29031
-0.263443
-6.44494
17.6457
-22.493
77.4972
1.19622
55.5174
-43.9801
-11.1188
-7.23473
-4.58359
-2.77011
-1.89859
-1.47459
-1.21686
-1.0307
-0.885682
-0.76892
-0.673487
-0.59547
-0.532551
-0.483147
-0.446183
-0.420798
-0.406398
-0.402797
-0.410244
-0.429342
-0.460804
-0.505572
-0.565051
-0.641229
-0.736966
-0.856447
-1.00671
-1.20023
-1.46658
-1.90523
-2.82363
-4.73525
-7.3494
-11.1231
8.23621
4.67817
15.9174
-2.61901
8.0621
0.366
-0.759361
-2.11666
-1.57721
-1.27489
-0.752838
0.0234455
0.922929
1.7425
2.48017
3.11192
3.619
3.95905
4.17018
4.31822
4.45181
4.59391
4.75463
4.92782
5.10223
5.27324
5.44412
5.6073
5.74973
5.86112
5.95559
6.05317
6.15209
6.25051
6.34326
6.42467
6.50576
6.58847
6.67797
6.77174
6.87384
6.97161
7.04391
7.2243
7.31069
7.38796
7.3813
7.20346
6.99803
6.98923
7.20119
7.47348
7.62995
7.69944
7.87594
7.85284
7.69641
7.44804
7.37379
8.01687
8.16814
8.79735
9.15982
9.19826
8.39207
8.62884
8.23395
9.11292
8.85744
8.67601
8.12219
7.37342
7.33486
7.52591
7.82533
8.11602
8.13235
7.98714
7.97332
8.05221
8.67412
8.31821
9.53364
9.9977
10.1205
8.54929
8.56444
8.22888
8.26668
8.27211
8.26306
8.22644
8.16402
8.12648
8.10881
8.09937
8.09057
8.0832
8.07894
8.07745
8.07691
8.07503
8.07007
8.06129
8.04886
8.03338
8.01552
7.99578
7.97453
7.95202
7.92843
7.90387
7.87844
7.85221
7.82522
7.79753
7.76917
7.74017
7.71056
7.68036
7.64959
7.61826
7.58639
7.55399
7.52109
7.48768
7.45378
7.4194
7.38455
7.34924
7.31347
7.27727
7.24063
7.20357
7.1661
7.12822
7.08995
7.05129
7.01224
6.97282
6.93304
6.8929
6.85242
6.8116
6.77044
6.72897
6.68718
6.64509
6.60269
6.56001
6.51704
6.4738
6.4303
6.38653
6.34251
6.29825
6.25376
6.20903
6.16407
6.1189
6.07351
6.02791
5.9821
5.93608
5.88987
5.84346
5.79685
5.75006
5.70308
5.65591
5.60857
5.56105
5.51336
5.46549
5.41746
5.36926
5.32091
5.27239
5.22372
5.1749
5.12593
5.07682
5.02756
4.97816
4.92863
4.87896
4.82916
4.77923
4.72917
4.67899
4.62869
4.57827
4.52773
4.47708
4.42632
4.37545
4.32447
4.27339
4.22221
4.17093
4.11955
4.06808
4.01652
3.96486
3.91313
3.8613
3.8094
3.75742
3.70536
3.65324
3.60104
3.54878
3.49645
3.44407
3.39164
3.33915
3.28661
3.23404
3.18142
3.12877
3.0761
3.02339
2.97067
2.91794
2.86519
2.81245
2.7597
2.70697
2.65424
2.60155
2.54888
2.49624
2.44365
2.39111
2.33862
2.28621
2.23386
2.1816
2.12943
2.07736
2.02539
1.97354
1.92182
1.87023
1.81879
1.7675
1.71638
1.66543
1.61467
1.5641
1.51373
1.46358
1.41365
1.36395
1.31449
1.26528
1.21632
1.16762
1.11918
1.07099
1.02307
0.975413
0.928008
0.880854
0.833933
0.787179
0.740473
0.693939
0.647641
0.601353
0.554943
0.508371
0.461774
0.414895
0.364952
0.307903
0.318231
0.212179
0.177236
0.16594
0.193376
0.18636
0.173307
0.171868
0.170485
0.167974
0.165323
0.162924
0.160768
0.158424
0.15573
0.152725
0.149447
0.145922
0.142166
0.138185
0.13398
0.12955
0.124897
0.120025
0.114943
0.109663
0.104197
0.0985619
0.0927748
0.0868547
0.080822
0.0746979
0.0685045
0.062265
0.056003
0.0497424
0.0435074
0.0373226
0.0312129
0.0252027
0.0193164
0.013578
0.00801103
0.00263823
-0.00251823
-0.00743711
-0.0120981
-0.0164818
-0.0205702
-0.0243461
-0.0277937
-0.0308989
-0.0336486
-0.0360316
-0.038038
-0.0396595
-0.0408895
-0.0417227
-0.0421559
-0.0421872
-0.0418164
-0.0410452
-0.0398767
-0.0383156
-0.0363686
-0.0340435
-0.0313496
-0.028298
-0.0249006
-0.0211712
-0.0171249
-0.0127777
-0.00814707
-0.00325152
0.00188958
0.00725594
0.0128265
0.018579
0.0244908
0.0305384
0.0366978
0.0429442
0.0492523
0.055596
0.061949
0.0682846
0.0745757
0.0807953
0.0869168
0.0929142
0.0987628
0.10444
0.109927
0.115208
0.120273
0.125117
0.129743
0.134156
0.138363
0.142376
0.146201
0.149826
0.1532
0.156351
0.159236
0.161749
0.163915
0.165954
0.168366
0.170819
0.169936
0.15496
0.137285
0.232927
0.108433
0.164375
0.269283
0.260368
0.315745
0.365987
0.413299
0.45986
0.50635
0.552671
0.598914
0.645078
0.691373
0.737795
0.784377
0.83115
0.87815
0.925397
0.972901
1.02066
1.06868
1.11694
1.16544
1.21418
1.26314
1.31234
1.36176
1.41141
1.46129
1.51139
1.56172
1.61227
1.66304
1.71401
1.76517
1.81653
1.86806
1.91975
1.97159
2.02357
2.07567
2.12789
2.18021
2.23261
2.2851
2.33765
2.39027
2.44293
2.49564
2.54838
2.60116
2.65395
2.70676
2.75957
2.81239
2.86521
2.91801
2.9708
3.02358
3.07633
3.12905
3.18173
3.23438
3.28699
3.33954
3.39205
3.4445
3.4969
3.54923
3.60149
3.65369
3.70582
3.75787
3.80984
3.86174
3.91355
3.96528
4.01692
4.06847
4.11993
4.17129
4.22256
4.27373
4.3248
4.37577
4.42663
4.47739
4.52804
4.57858
4.629
4.67931
4.7295
4.77956
4.82951
4.87932
4.92901
4.97856
5.02797
5.07725
5.12639
5.17537
5.22421
5.2729
5.32142
5.36979
5.41799
5.46603
5.51389
5.56158
5.60909
5.65642
5.70357
5.75053
5.7973
5.84387
5.89025
5.93642
5.9824
6.02816
6.07372
6.11906
6.16418
6.20908
6.25375
6.29819
6.34239
6.38635
6.43004
6.47348
6.51664
6.55953
6.60213
6.64444
6.68646
6.72817
6.76957
6.81065
6.85141
6.89183
6.93191
6.97163
7.011
7.05
7.08862
7.12686
7.1647
7.20214
7.23917
7.27579
7.31197
7.34771
7.383
7.41782
7.45217
7.48603
7.5194
7.55227
7.58461
7.61642
7.64768
7.67836
7.70846
7.73796
7.76682
7.79502
7.82252
7.8493
7.8753
7.90047
7.92473
7.948
7.97012
7.99094
8.01019
8.02749
8.04231
8.05398
8.06184
8.06566
8.06611
8.0648
8.06389
8.06499
8.0682
8.07134
8.07283
8.07875
8.1021
8.14899
8.18372
8.18449
8.20546
8.14573
8.54659
8.50024
10.2931
10.2185
9.7174
8.4364
8.78236
8.05944
7.98893
7.98274
8.1096
8.07361
7.77469
7.48852
7.30708
7.35062
8.1181
8.66211
8.82344
9.08095
8.20699
8.6458
8.3795
9.29555
9.22776
8.8083
8.09565
8.03757
7.35783
7.42633
7.67447
7.82786
7.82354
7.64145
7.61729
7.49668
7.23022
7.0346
7.04522
7.21853
7.35588
7.32223
7.24405
7.19634
7.02695
6.9436
6.85045
6.75786
6.67356
6.58109
6.47917
6.3669
6.25282
6.14065
6.03031
5.91977
5.80943
5.69026
5.56616
5.43542
5.3
5.16988
5.04425
4.90857
4.76192
4.60409
4.4406
4.27214
4.09702
3.90855
3.68134
3.35906
2.90631
2.31436
1.56698
0.687627
-0.0643742
-0.248841
0.239015
-0.175316
0.374656
1.2457
6.20978
-1.13722
12.3874
3.26178
5.53238
0.754885
-0.304542
-0.670974
-0.763459
-0.749159
-0.692894
-0.622724
-0.551284
-0.483856
-0.422629
-0.368775
-0.322985
-0.285797
-0.257421
-0.237831
-0.226982
-0.224968
-0.231998
-0.248126
-0.2733
-0.307427
-0.350441
-0.401951
-0.460868
-0.525033
-0.589734
-0.645022
-0.670478
-0.62612
-0.428091
0.143456
1.71632
0.270539
2.27696
6.84987
1.44452
4.21281
1.39518
0.453279
-0.613655
-0.504871
-0.440358
-0.0942981
0.462504
1.12416
1.76839
2.37524
2.91347
3.36485
3.70432
3.95446
4.15209
4.32647
4.49456
4.66598
4.84012
5.01236
5.18014
5.34444
5.50051
5.64132
5.76155
5.86899
5.97466
6.07786
6.17837
6.27407
6.36235
6.44963
6.53659
6.62619
6.71714
6.81018
6.8966
6.96688
7.03342
7.14187
7.22856
7.24043
7.18395
7.1221
7.14217
7.26377
7.42337
7.53791
7.63067
7.75302
7.74035
7.68499
7.62763
7.66298
8.00435
8.15
8.52013
8.69241
8.76059
8.41919
8.50426
8.25208
8.24907
8.33283
8.3711
8.07941
7.76421
7.66017
7.72715
7.89824
8.04847
8.08225
8.06923
8.11432
8.21719
8.57488
8.53875
9.13811
9.24972
9.37
8.68757
8.62611
8.36304
8.33168
8.29227
8.26001
8.22164
8.17299
8.13965
8.11793
8.10261
8.08982
8.07938
8.07152
8.06563
8.06044
8.05445
8.04648
8.0359
8.02266
8.00702
7.98933
7.96992
7.94906
7.92694
7.90373
7.87954
7.85446
7.82855
7.80188
7.77448
7.7464
7.71768
7.68833
7.65838
7.62785
7.59676
7.56512
7.53295
7.50026
7.46707
7.43339
7.39922
7.36457
7.32946
7.29389
7.25789
7.22144
7.18458
7.14729
7.1096
7.07151
7.03303
6.99416
6.95492
6.91531
6.87534
6.83503
6.79437
6.75339
6.71208
6.67045
6.62852
6.58628
6.54375
6.50093
6.45785
6.41449
6.37087
6.327
6.28289
6.23853
6.19394
6.14913
6.10409
6.05884
6.01337
5.96769
5.92181
5.87572
5.82944
5.78296
5.73629
5.68943
5.64239
5.59517
5.54777
5.50019
5.45244
5.40453
5.35644
5.3082
5.25979
5.21124
5.16252
5.11366
5.06465
5.0155
4.96621
4.91678
4.86721
4.81751
4.76768
4.71772
4.66764
4.61744
4.56712
4.51668
4.46613
4.41546
4.36469
4.3138
4.26282
4.21173
4.16055
4.10927
4.05789
4.00643
3.95487
3.90323
3.8515
3.79969
3.74781
3.69585
3.64382
3.59172
3.53956
3.48733
3.43505
3.38271
3.33033
3.27789
3.22542
3.1729
3.12036
3.06778
3.01518
2.96256
2.90993
2.85729
2.80464
2.752
2.69937
2.64675
2.59415
2.54158
2.48904
2.43655
2.3841
2.33171
2.27938
2.22713
2.17495
2.12286
2.07087
2.01898
1.9672
1.91554
1.86401
1.81262
1.76138
1.7103
1.65938
1.60864
1.55808
1.50772
1.45755
1.4076
1.35786
1.30835
1.25907
1.21003
1.16122
1.11265
1.06432
1.01623
0.968376
0.920758
0.873373
0.826181
0.779034
0.731922
0.685142
0.63857
0.591949
0.544978
0.497562
0.449836
0.400976
0.345989
0.263007
0.320941
0.157242
0.212288
0.295598
0.350908
0.40048
0.448428
0.495867
0.542865
0.589652
0.636084
0.68269
0.729397
0.776261
0.823312
0.870577
0.918074
0.965809
1.01378
1.06198
1.1104
1.15903
1.20787
1.25693
1.30619
1.35567
1.40535
1.45525
1.50537
1.5557
1.60624
1.65698
1.70792
1.75904
1.81035
1.86182
1.91345
1.96522
2.01712
2.06914
2.12127
2.1735
2.22582
2.27821
2.33067
2.38318
2.43575
2.48836
2.54101
2.59368
2.64637
2.69908
2.75179
2.80451
2.85722
2.90993
2.96262
3.01529
3.06794
3.12056
3.17315
3.2257
3.27821
3.33067
3.38308
3.43543
3.48773
3.53997
3.59214
3.64424
3.69627
3.74823
3.80011
3.85191
3.90363
3.95526
4.00681
4.05827
4.10963
4.1609
4.21207
4.26315
4.31412
4.365
4.41576
4.46642
4.51698
4.56742
4.61774
4.66795
4.71804
4.768
4.81784
4.86756
4.91714
4.96659
5.0159
5.06507
5.1141
5.16297
5.2117
5.26028
5.30869
5.35695
5.40504
5.45296
5.50071
5.54828
5.59567
5.64288
5.68991
5.73674
5.78338
5.82983
5.87608
5.92213
5.96797
6.01361
6.05903
6.10423
6.14922
6.19398
6.23851
6.28281
6.32687
6.37067
6.41422
6.45751
6.50052
6.54325
6.5857
6.62785
6.66971
6.71126
6.75249
6.79341
6.834
6.87425
6.91415
6.95371
6.9929
7.03172
7.07016
7.10821
7.14586
7.18312
7.21996
7.25637
7.29235
7.32789
7.36297
7.39759
7.43172
7.46537
7.49852
7.53115
7.56327
7.59484
7.62585
7.65628
7.68612
7.71534
7.74391
7.77182
7.79901
7.82546
7.85111
7.87591
7.89978
7.92263
7.94433
7.96471
7.98358
8.00065
8.01558
8.02797
8.03753
8.04427
8.04874
8.05202
8.05552
8.06034
8.06692
8.07476
8.08376
8.0973
8.12175
8.16153
8.19968
8.22921
8.28901
8.31636
8.6242
8.69322
9.47352
9.37757
9.25974
8.63451
8.65878
8.24752
8.13091
8.06898
8.06914
8.02362
7.86761
7.69923
7.63759
7.74641
8.06686
8.35679
8.31309
8.23491
8.2411
8.51634
8.42441
8.80934
8.72164
8.53069
8.12071
8.00889
7.64929
7.61027
7.665
7.71747
7.72142
7.60008
7.52443
7.42943
7.28262
7.16836
7.14289
7.18933
7.22169
7.18955
7.1118
7.01632
6.94338
6.87112
6.78676
6.69755
6.60925
6.51489
6.41398
6.30576
6.19496
6.08365
5.97183
5.8584
5.74371
5.62254
5.49706
5.36635
5.2313
5.09663
4.96152
4.81811
4.66577
4.50329
4.33205
4.1503
3.9553
3.7408
3.48794
3.16391
2.75417
2.26171
1.69565
1.09312
0.591084
0.420245
0.70567
0.605187
1.14752
1.73384
3.61345
1.47506
5.50875
1.40972
0.281143
0.186027
0.203383
0.218301
0.219355
0.216552
0.213595
0.211228
0.209499
0.207441
0.204824
0.201823
0.198548
0.195052
0.191363
0.187487
0.18342
0.179156
0.174692
0.17003
0.165179
0.160146
0.154946
0.149591
0.144099
0.138487
0.132773
0.126977
0.12112
0.115223
0.109308
0.103397
0.0975124
0.091677
0.0859141
0.0802465
0.0746968
0.0692873
0.06404
0.0589762
0.0541165
0.0494808
0.0450882
0.0409567
0.0371033
0.0335441
0.030294
0.0273663
0.024773
0.0225248
0.0206308
0.019099
0.0179355
0.0171451
0.0167311
0.0166952
0.0170372
0.017756
0.0188483
0.0203099
0.0221346
0.0243149
0.0268421
0.029706
0.0328953
0.0363975
0.0401986
0.0442835
0.0486364
0.0532402
0.0580772
0.0631288
0.0683758
0.073798
0.0793744
0.0850836
0.0909035
0.0968112
0.102783