/*--------------------------------*- C++ -*----------------------------------*\
| =========                 |                                                 |
| \\      /  F ield         | OpenFOAM: The Open Source CFD Toolbox           |
|  \\    /   O peration     | Version:  2.2.1                                 |
|   \\  /    A nd           | Web:      www.OpenFOAM.org                      |
|    \\/     M anipulation  |                                                 |
\*---------------------------------------------------------------------------*/
FoamFile
{
    version     2.0;
    format      ascii;
    class       surfaceScalarField;
    location    "4.5e-05";
    object      phi;
}
// * * * * * * * * * * * * * * * * * * * * * * * * * * * * * * * * * * * * * //

dimensions      [0 3 -1 0 0 0 0];

internalField   nonuniform List<scalar> 
44563
(
-5.53452e-13
1.27059e-13
-6.21696e-13
6.82442e-14
-3.85603e-14
-5.83136e-13
-6.55342e-14
2.69738e-14
5.31851e-14
-1.18719e-13
-1.94176e-14
7.26027e-14
1.45953e-13
-1.6537e-13
-2.54824e-14
1.71435e-13
-8.88339e-15
-1.6599e-14
-6.92988e-14
6.04154e-14
-4.53666e-14
-2.39322e-14
-8.12606e-14
3.5894e-14
-6.34777e-14
-1.77829e-14
-4.67384e-14
-1.67393e-14
-3.40034e-14
-1.2735e-14
-2.75375e-14
-6.46599e-15
-2.1999e-14
-5.53842e-15
-1.97179e-14
-2.28115e-15
-1.9722e-14
4.12809e-18
-2.25621e-14
2.84007e-15
-2.4672e-14
2.10988e-15
-2.52968e-14
6.24886e-16
-2.48436e-14
-4.53249e-16
-2.37983e-14
-1.04524e-15
-2.23534e-14
-1.44494e-15
-2.10683e-14
-1.28509e-15
-2.01593e-14
-9.09013e-16
-1.95126e-14
-6.46701e-16
-1.88885e-14
-6.241e-16
-1.86665e-14
-2.21967e-16
-1.89608e-14
2.94296e-16
-1.96852e-14
7.24344e-16
-1.99244e-14
2.39175e-16
-1.94864e-14
-4.37901e-16
-1.91996e-14
-2.869e-16
-1.89165e-14
-2.83023e-16
-1.8728e-14
-1.88516e-16
-1.868e-14
-4.79686e-17
-1.81687e-14
-5.11358e-16
-1.77328e-14
-4.35903e-16
-1.71445e-14
-5.883e-16
-1.66637e-14
-4.80827e-16
-1.60477e-14
-6.15977e-16
-1.56574e-14
-3.90255e-16
-1.523e-14
-4.27406e-16
-1.50777e-14
-1.52348e-16
-1.48392e-14
-2.3846e-16
-1.47172e-14
-1.22029e-16
-1.45191e-14
-1.98062e-16
-1.39942e-14
-5.24965e-16
-1.3112e-14
-8.8219e-16
-1.13807e-14
-1.73128e-15
-9.17556e-15
-2.20513e-15
-7.81976e-15
-1.3558e-15
-8.02454e-15
2.04785e-16
-4.60386e-15
-3.42068e-15
-2.81278e-15
-1.79108e-15
-1.33604e-14
1.05476e-14
-1.08054e-14
-2.55499e-15
-7.3881e-15
-3.41731e-15
-5.42875e-15
-1.95935e-15
-2.41504e-15
-3.01371e-15
-1.22861e-14
9.87102e-15
-1.20352e-15
-1.10825e-14
-1.20799e-14
1.08764e-14
-9.5396e-16
-1.11259e-14
-1.50676e-14
1.41137e-14
-1.84458e-15
-1.32231e-14
-2.04271e-14
1.85825e-14
-7.81847e-15
-1.26086e-14
-2.11531e-14
1.33347e-14
-1.46129e-14
-6.54021e-15
-1.89684e-14
4.35549e-15
-1.53188e-14
-3.64958e-15
-1.26178e-14
-2.70099e-15
-7.98217e-15
-4.63568e-15
-2.41821e-15
-5.56396e-15
-5.81162e-15
3.39341e-15
-9.78345e-15
3.97183e-15
-7.02675e-15
-2.7567e-15
-5.45593e-15
-1.57083e-15
-4.05258e-15
-1.40335e-15
-1.44668e-15
-2.6059e-15
-1.48666e-14
1.34199e-14
-4.34657e-15
-1.052e-14
-3.23714e-14
2.80248e-14
1.22747e-14
-4.46461e-14
-1.2417e-14
2.46916e-14
5.77696e-15
-1.81939e-14
-1.68607e-14
2.26377e-14
-9.28322e-15
-7.57749e-15
-1.41609e-14
4.87773e-15
-1.53034e-14
1.14241e-15
-1.59787e-14
6.75352e-16
-1.66372e-14
6.58529e-16
-1.52899e-14
-1.34737e-15
-1.421e-14
-1.07988e-15
-1.33225e-14
-8.87523e-16
-1.25941e-14
-7.28398e-16
-1.18588e-14
-7.35261e-16
-1.11319e-14
-7.269e-16
-1.04807e-14
-6.51223e-16
-9.9473e-15
-5.33391e-16
-9.55012e-15
-3.9718e-16
-9.27221e-15
-2.7791e-16
-9.07874e-15
-1.93474e-16
-8.93314e-15
-1.45599e-16
-8.81121e-15
-1.21927e-16
-8.7007e-15
-1.10516e-16
-8.5966e-15
-1.041e-16
-8.49696e-15
-9.96389e-17
-8.40077e-15
-9.61937e-17
-8.30738e-15
-9.33889e-17
-8.21634e-15
-9.10309e-17
-8.12734e-15
-8.9002e-17
-8.04012e-15
-8.72215e-17
-7.95449e-15
-8.56318e-17
-7.8703e-15
-8.41905e-17
-7.78743e-15
-8.28661e-17
-7.7058e-15
-8.16349e-17
-7.62532e-15
-8.04796e-17
-7.54593e-15
-7.93866e-17
-7.46759e-15
-7.83452e-17
-7.39024e-15
-7.73472e-17
-7.31385e-15
-7.63861e-17
-7.2384e-15
-7.54565e-17
-7.16384e-15
-7.45545e-17
-7.09017e-15
-7.36767e-17
-7.01734e-15
-7.28208e-17
-6.94536e-15
-7.19842e-17
-6.8742e-15
-7.11653e-17
-6.80383e-15
-7.03627e-17
-6.73426e-15
-6.95747e-17
-6.66546e-15
-6.88004e-17
-6.59742e-15
-6.80388e-17
-6.53013e-15
-6.72895e-17
-6.46358e-15
-6.65522e-17
-6.39775e-15
-6.58262e-17
-6.33264e-15
-6.51106e-17
-6.26824e-15
-6.44051e-17
-6.20453e-15
-6.37095e-17
-6.1415e-15
-6.30233e-17
-6.07916e-15
-6.23466e-17
-6.01748e-15
-6.16795e-17
-5.95645e-15
-6.10216e-17
-5.89608e-15
-6.03725e-17
-5.83635e-15
-5.97323e-17
-5.77725e-15
-5.91006e-17
-5.71877e-15
-5.84773e-17
-5.66091e-15
-5.78619e-17
-5.60366e-15
-5.72556e-17
-5.547e-15
-5.66572e-17
-5.49093e-15
-5.60672e-17
-5.43544e-15
-5.54855e-17
-5.38053e-15
-5.49118e-17
-5.32619e-15
-5.43463e-17
-5.2724e-15
-5.37893e-17
-5.21916e-15
-5.32402e-17
-5.16646e-15
-5.26991e-17
-5.11429e-15
-5.21658e-17
-5.06265e-15
-5.16402e-17
-5.01153e-15
-5.11222e-17
-4.96092e-15
-5.06118e-17
-4.91081e-15
-5.01087e-17
-4.8612e-15
-4.96136e-17
-4.81207e-15
-4.91252e-17
-4.76343e-15
-4.86437e-17
-4.71526e-15
-4.81688e-17
-4.66756e-15
-4.77004e-17
-4.62032e-15
-4.72385e-17
-4.57354e-15
-4.67828e-17
-4.5272e-15
-4.63331e-17
-4.48131e-15
-4.58896e-17
-4.43586e-15
-4.54519e-17
-4.39084e-15
-4.50197e-17
-4.34625e-15
-4.45929e-17
-4.30208e-15
-4.41716e-17
-4.25832e-15
-4.37555e-17
-4.21498e-15
-4.33449e-17
-4.17204e-15
-4.29392e-17
-4.1295e-15
-4.25387e-17
-4.08735e-15
-4.21432e-17
-4.0456e-15
-4.17527e-17
-4.00423e-15
-4.1367e-17
-3.96325e-15
-4.09862e-17
-3.92264e-15
-4.06096e-17
-3.8824e-15
-4.02373e-17
-3.84253e-15
-3.98691e-17
-3.80303e-15
-3.95049e-17
-3.76388e-15
-3.91443e-17
-3.7251e-15
-3.87873e-17
-3.68666e-15
-3.84338e-17
-3.64858e-15
-3.80829e-17
-3.61084e-15
-3.77352e-17
-3.57345e-15
-3.73896e-17
-3.53641e-15
-3.70463e-17
-3.4997e-15
-3.67048e-17
-3.46334e-15
-3.63647e-17
-3.42731e-15
-3.6026e-17
-3.39162e-15
-3.56883e-17
-3.35627e-15
-3.53513e-17
-3.32126e-15
-3.50147e-17
-3.28658e-15
-3.46779e-17
-3.25224e-15
-3.43406e-17
-3.21824e-15
-3.40025e-17
-3.18457e-15
-3.36634e-17
-3.15125e-15
-3.33227e-17
-3.11827e-15
-3.29813e-17
-3.08563e-15
-3.26378e-17
-3.05334e-15
-3.22923e-17
-3.02139e-15
-3.19443e-17
-2.9898e-15
-3.15936e-17
-2.95856e-15
-3.12402e-17
-2.92767e-15
-3.08836e-17
-2.89715e-15
-3.05238e-17
-2.86699e-15
-3.01606e-17
-2.8372e-15
-2.9794e-17
-2.80777e-15
-2.94237e-17
-2.77872e-15
-2.90495e-17
-2.75005e-15
-2.86714e-17
-2.72176e-15
-2.82892e-17
-2.69386e-15
-2.79035e-17
-2.66635e-15
-2.75139e-17
-2.63923e-15
-2.71206e-17
-2.6125e-15
-2.67237e-17
-2.58618e-15
-2.63234e-17
-2.56026e-15
-2.59197e-17
-2.53475e-15
-2.55131e-17
-2.50964e-15
-2.5104e-17
-2.48495e-15
-2.46926e-17
-2.46067e-15
-2.42794e-17
-2.4368e-15
-2.38649e-17
-2.41335e-15
-2.34496e-17
-2.39032e-15
-2.30341e-17
-2.3677e-15
-2.26188e-17
-2.3455e-15
-2.22053e-17
-2.3237e-15
-2.17938e-17
-2.30232e-15
-2.13854e-17
-2.28133e-15
-2.0981e-17
-2.26075e-15
-2.05814e-17
-2.24056e-15
-2.01881e-17
-2.22076e-15
-1.98023e-17
-2.20133e-15
-1.94254e-17
-2.18227e-15
-1.90588e-17
-2.16357e-15
-1.87042e-17
-2.14521e-15
-1.83632e-17
-2.12717e-15
-1.80374e-17
-2.10944e-15
-1.77289e-17
-2.092e-15
-1.74399e-17
-2.07482e-15
-1.71726e-17
-2.05789e-15
-1.693e-17
-2.04118e-15
-1.67149e-17
-2.02465e-15
-1.65309e-17
-2.00827e-15
-1.63825e-17
-1.99199e-15
-1.62745e-17
-1.97578e-15
-1.62126e-17
-1.95958e-15
-1.62027e-17
-1.94332e-15
-1.62512e-17
-1.92696e-15
-1.6364e-17
-1.91041e-15
-1.65467e-17
-1.89361e-15
-1.68055e-17
-1.87646e-15
-1.71469e-17
-1.85888e-15
-1.758e-17
-1.84077e-15
-1.81169e-17
-1.82199e-15
-1.87742e-17
-1.80242e-15
-1.95711e-17
-1.78189e-15
-2.05256e-17
-1.76025e-15
-2.16466e-17
-1.73732e-15
-2.29291e-17
-1.71296e-15
-2.43606e-17
-1.68702e-15
-2.59336e-17
-1.65939e-15
-2.76366e-17
-1.62983e-15
-2.95505e-17
-1.59799e-15
-3.18414e-17
-1.56298e-15
-3.50168e-17
-1.52206e-15
-4.0911e-17
-1.46775e-15
-5.43105e-17
-1.39433e-15
-7.34254e-17
-1.30279e-15
-9.15339e-17
-1.20323e-15
-9.95591e-17
-1.12245e-15
-8.07828e-17
-1.05233e-15
-7.01193e-17
-9.74867e-16
-7.7467e-17
-8.66264e-16
-1.08602e-16
-1.76825e-16
8.53572e-16
-1.69071e-16
9.58307e-16
-1.04735e-16
1.04288e-15
-8.45758e-17
1.13016e-15
-8.72773e-17
1.22943e-15
-9.92696e-17
1.31913e-15
-8.97024e-17
1.39475e-15
-7.56181e-17
1.45578e-15
-6.1024e-17
1.50586e-15
-5.00817e-17
1.54835e-15
-4.24905e-17
1.58555e-15
-3.72031e-17
1.61903e-15
-3.34756e-17
1.6496e-15
-3.05695e-17
1.67772e-15
-2.81189e-17
1.70376e-15
-2.604e-17
1.72801e-15
-2.42579e-17
1.75075e-15
-2.27399e-17
1.77222e-15
-2.1468e-17
1.79265e-15
-2.04251e-17
1.81223e-15
-1.95843e-17
1.83114e-15
-1.89122e-17
1.84951e-15
-1.83718e-17
1.86744e-15
-1.79288e-17
1.885e-15
-1.75559e-17
1.90223e-15
-1.72342e-17
1.91918e-15
-1.69526e-17
1.93589e-15
-1.67083e-17
1.9524e-15
-1.65029e-17
1.96874e-15
-1.63421e-17
1.98497e-15
-1.62318e-17
2.00115e-15
-1.61785e-17
2.01734e-15
-1.6186e-17
2.03359e-15
-1.62561e-17
2.04998e-15
-1.63881e-17
2.06656e-15
-1.6579e-17
2.08338e-15
-1.68236e-17
2.1005e-15
-1.7116e-17
2.11795e-15
-1.7449e-17
2.13576e-15
-1.78155e-17
2.15397e-15
-1.82085e-17
2.17259e-15
-1.86215e-17
2.19164e-15
-1.90489e-17
2.21113e-15
-1.94858e-17
2.23106e-15
-1.99279e-17
2.25143e-15
-2.03723e-17
2.27225e-15
-2.08164e-17
2.29351e-15
-2.12587e-17
2.31521e-15
-2.16978e-17
2.33734e-15
-2.21328e-17
2.35991e-15
-2.25635e-17
2.3829e-15
-2.29897e-17
2.40631e-15
-2.34119e-17
2.43014e-15
-2.38294e-17
2.45438e-15
-2.42427e-17
2.47903e-15
-2.4652e-17
2.50409e-15
-2.50573e-17
2.52955e-15
-2.54589e-17
2.55541e-15
-2.58567e-17
2.58166e-15
-2.62509e-17
2.6083e-15
-2.66414e-17
2.63533e-15
-2.70282e-17
2.66274e-15
-2.74112e-17
2.69053e-15
-2.77905e-17
2.71869e-15
-2.8166e-17
2.74723e-15
-2.85373e-17
2.77613e-15
-2.89052e-17
2.8054e-15
-2.9269e-17
2.83503e-15
-2.96292e-17
2.86502e-15
-2.99859e-17
2.89536e-15
-3.03394e-17
2.92605e-15
-3.06895e-17
2.95708e-15
-3.10366e-17
2.98846e-15
-3.1381e-17
3.02019e-15
-3.17228e-17
3.05225e-15
-3.20625e-17
3.08465e-15
-3.24001e-17
3.11739e-15
-3.2736e-17
3.15046e-15
-3.30705e-17
3.18386e-15
-3.34035e-17
3.2176e-15
-3.37364e-17
3.25167e-15
-3.40685e-17
3.28607e-15
-3.44005e-17
3.3208e-15
-3.47328e-17
3.35587e-15
-3.50656e-17
3.39127e-15
-3.53992e-17
3.427e-15
-3.57339e-17
3.46307e-15
-3.607e-17
3.49948e-15
-3.64076e-17
3.53623e-15
-3.67472e-17
3.57331e-15
-3.70891e-17
3.61075e-15
-3.74334e-17
3.64853e-15
-3.77803e-17
3.68666e-15
-3.81299e-17
3.72514e-15
-3.84832e-17
3.76398e-15
-3.88395e-17
3.80318e-15
-3.91994e-17
3.84274e-15
-3.95631e-17
3.88267e-15
-3.99308e-17
3.92298e-15
-4.03025e-17
3.96365e-15
-4.06783e-17
4.00471e-15
-4.10585e-17
4.04616e-15
-4.14429e-17
4.08799e-15
-4.18318e-17
4.13021e-15
-4.22251e-17
4.17284e-15
-4.26229e-17
4.21586e-15
-4.30253e-17
4.2593e-15
-4.34323e-17
4.30314e-15
-4.38438e-17
4.3474e-15
-4.42608e-17
4.39208e-15
-4.46824e-17
4.43719e-15
-4.51089e-17
4.48273e-15
-4.55405e-17
4.52871e-15
-4.59774e-17
4.57513e-15
-4.64199e-17
4.622e-15
-4.68679e-17
4.66932e-15
-4.73217e-17
4.7171e-15
-4.77817e-17
4.76535e-15
-4.82481e-17
4.81407e-15
-4.8721e-17
4.86327e-15
-4.92007e-17
4.91296e-15
-4.96874e-17
4.96314e-15
-5.01809e-17
5.01382e-15
-5.06826e-17
5.06501e-15
-5.11917e-17
5.11672e-15
-5.17087e-17
5.16895e-15
-5.22338e-17
5.22172e-15
-5.27671e-17
5.27503e-15
-5.33085e-17
5.32889e-15
-5.38583e-17
5.3833e-15
-5.44162e-17
5.43829e-15
-5.49826e-17
5.49384e-15
-5.55573e-17
5.54998e-15
-5.61402e-17
5.60672e-15
-5.67315e-17
5.66405e-15
-5.73312e-17
5.72199e-15
-5.79388e-17
5.78054e-15
-5.85555e-17
5.83972e-15
-5.918e-17
5.89953e-15
-5.9813e-17
5.95999e-15
-6.04552e-17
6.0211e-15
-6.11064e-17
6.08286e-15
-6.17665e-17
6.1453e-15
-6.24364e-17
6.20842e-15
-6.3116e-17
6.27222e-15
-6.38054e-17
6.33673e-15
-6.45047e-17
6.40194e-15
-6.52145e-17
6.46788e-15
-6.59354e-17
6.53454e-15
-6.66681e-17
6.60196e-15
-6.74133e-17
6.67013e-15
-6.81717e-17
6.73907e-15
-6.8944e-17
6.8088e-15
-6.97311e-17
6.87934e-15
-7.05336e-17
6.95069e-15
-7.13522e-17
7.02288e-15
-7.21886e-17
7.09592e-15
-7.3045e-17
7.16985e-15
-7.39231e-17
7.24467e-15
-7.48255e-17
7.32043e-15
-7.57555e-17
7.39714e-15
-7.67165e-17
7.47485e-15
-7.77123e-17
7.5536e-15
-7.87489e-17
7.63344e-15
-7.98331e-17
7.71441e-15
-8.09732e-17
7.79659e-15
-8.2181e-17
7.88006e-15
-8.34713e-17
7.96493e-15
-8.48628e-17
8.05131e-15
-8.63815e-17
8.13937e-15
-8.80614e-17
8.22932e-15
-8.99488e-17
8.32142e-15
-9.21056e-17
8.41604e-15
-9.46175e-17
8.51365e-15
-9.76087e-17
8.61493e-15
-1.01282e-16
8.72096e-15
-1.06025e-16
8.83374e-15
-1.12784e-16
8.95834e-15
-1.24597e-16
9.10706e-15
-1.48719e-16
9.30416e-15
-1.97104e-16
9.58634e-15
-2.82183e-16
9.9888e-15
-4.02461e-16
1.05292e-14
-5.40391e-16
1.11904e-14
-6.61168e-16
1.19317e-14
-7.41298e-16
1.26862e-14
-7.54559e-16
1.34413e-14
-7.55056e-16
1.43477e-14
-9.06411e-16
1.55351e-14
-1.18746e-15
1.69839e-14
-1.44876e-15
1.7016e-14
-3.2071e-17
1.60162e-14
9.99811e-16
1.63463e-14
-3.30175e-16
9.14956e-15
7.19677e-15
1.81245e-14
-8.97492e-15
-6.79731e-15
2.49218e-14
1.20402e-14
-1.88375e-14
-1.46337e-14
2.66739e-14
3.261e-14
-4.72437e-14
4.90219e-15
2.77078e-14
1.65982e-14
-1.16961e-14
8.11191e-17
1.65171e-14
2.94711e-15
-2.86599e-15
4.6252e-15
-1.6781e-15
6.57006e-15
-1.94485e-15
9.49329e-15
-2.92323e-15
5.5273e-15
3.96599e-15
2.23944e-15
3.28786e-15
8.06503e-15
-5.82559e-15
1.26976e-14
-4.63262e-15
1.55674e-14
-2.86973e-15
1.92762e-14
-3.70884e-15
1.47495e-14
4.52672e-15
2.16073e-14
-6.85778e-15
7.89164e-15
1.37157e-14
2.14542e-14
-1.35625e-14
1.0675e-15
2.03867e-14
1.56305e-14
-1.4563e-14
-1.08026e-15
1.67107e-14
1.36248e-14
-1.4705e-14
3.33331e-16
1.32914e-14
1.33679e-14
-1.30346e-14
1.63786e-15
1.173e-14
5.20629e-15
-3.56842e-15
7.48648e-15
-2.28019e-15
1.09499e-14
-3.46337e-15
1.3896e-14
-2.94619e-15
3.28493e-15
1.06111e-14
4.78995e-15
-1.50502e-15
8.83061e-15
-4.04066e-15
9.32306e-15
-4.92445e-16
1.03627e-14
-1.03965e-15
1.15508e-14
-1.18809e-15
1.29079e-14
-1.35713e-15
1.32724e-14
-3.64466e-16
1.41099e-14
-8.37551e-16
1.55551e-14
-1.44517e-15
1.5791e-14
-2.35878e-16
1.51961e-14
5.94876e-16
1.53137e-14
-1.17546e-16
1.57582e-14
-4.44544e-16
1.60842e-14
-3.26023e-16
1.65312e-14
-4.46937e-16
1.65484e-14
-1.72156e-17
1.66011e-14
-5.27302e-17
1.65998e-14
1.31706e-18
1.69406e-14
-3.40791e-16
1.7419e-14
-4.78399e-16
1.79092e-14
-4.90263e-16
1.83606e-14
-4.51355e-16
1.89273e-14
-5.66654e-16
1.91554e-14
-2.28097e-16
1.96042e-14
-4.48884e-16
2.00094e-14
-4.05192e-16
2.04768e-14
-4.67358e-16
2.12422e-14
-7.65451e-16
2.19934e-14
-7.5117e-16
2.23111e-14
-3.1767e-16
2.27181e-14
-4.06975e-16
2.30853e-14
-3.67204e-16
2.36594e-14
-5.74134e-16
2.42888e-14
-6.2941e-16
2.48806e-14
-5.91818e-16
2.53028e-14
-4.22133e-16
2.5377e-14
-7.4215e-17
2.43481e-14
1.02883e-15
2.29684e-14
1.37979e-15
2.25703e-14
3.9801e-16
2.39193e-14
-1.34895e-15
2.77943e-14
-3.87501e-15
3.77998e-14
-1.00054e-14
5.99886e-14
-2.21889e-14
9.50667e-14
-3.5078e-14
4.56621e-14
4.94046e-14
5.09023e-14
-5.24022e-15
7.6844e-15
4.32179e-14
2.1285e-14
-1.36006e-14
-1.25344e-13
1.46629e-13
1.68214e-14
-1.42165e-13
-4.80872e-14
6.49086e-14
5.96161e-14
-1.07703e-13
3.36227e-14
2.59934e-14
5.78758e-13
-5.45135e-13
5.13299e-13
6.54584e-14
1.16313e-13
-3.86487e-16
3.17305e-15
-5.40899e-16
5.94801e-15
-5.81801e-16
9.10169e-15
-4.71765e-16
1.25915e-14
-2.56481e-16
1.64579e-14
-5.13085e-17
2.07721e-14
9.31096e-17
2.54459e-14
1.79686e-16
3.03912e-14
2.26538e-16
3.55665e-14
2.50156e-16
4.09522e-14
2.62e-16
4.65343e-14
2.69131e-16
5.22986e-14
2.75419e-16
5.82308e-14
2.82561e-16
6.43162e-14
2.90996e-16
7.05393e-14
3.00575e-16
7.68839e-14
3.10934e-16
8.33332e-14
3.21699e-16
8.98704e-14
3.3254e-16
9.64786e-14
3.43189e-16
1.03141e-13
3.5344e-16
1.09843e-13
3.63122e-16
1.16566e-13
3.72103e-16
1.23297e-13
3.80272e-16
1.30019e-13
3.87539e-16
1.36718e-13
3.93828e-16
1.43379e-13
3.99077e-16
1.49989e-13
4.03234e-16
1.56534e-13
4.06257e-16
1.63e-13
4.08112e-16
1.69376e-13
4.08773e-16
1.75648e-13
4.0822e-16
1.81804e-13
4.0644e-16
1.87835e-13
4.03426e-16
1.93728e-13
3.99176e-16
1.99473e-13
3.93694e-16
2.05062e-13
3.8699e-16
2.10483e-13
3.79078e-16
2.15728e-13
3.69978e-16
2.2079e-13
3.59713e-16
2.25659e-13
3.48313e-16
2.30329e-13
3.3581e-16
2.34793e-13
3.22243e-16
2.39043e-13
3.07653e-16
2.43075e-13
2.92084e-16
2.46881e-13
2.75586e-16
2.50457e-13
2.5821e-16
2.53798e-13
2.40013e-16
2.569e-13
2.21051e-16
2.59758e-13
2.01385e-16
2.62368e-13
1.81078e-16
2.64728e-13
1.60194e-16
2.66834e-13
1.38801e-16
2.68683e-13
1.16968e-16
2.70274e-13
9.4762e-17
2.71604e-13
7.22555e-17
2.72672e-13
4.95197e-17
2.73475e-13
2.66263e-17
2.74015e-13
3.64776e-18
2.74288e-13
-1.93437e-17
2.74296e-13
-4.22759e-17
2.74038e-13
-6.50773e-17
2.73515e-13
-8.7677e-17
2.72726e-13
-1.10005e-16
2.71673e-13
-1.31994e-16
2.70357e-13
-1.53574e-16
2.6878e-13
-1.74681e-16
2.66943e-13
-1.95251e-16
2.64849e-13
-2.15219e-16
2.62499e-13
-2.34527e-16
2.59898e-13
-2.53114e-16
2.57047e-13
-2.70923e-16
2.53952e-13
-2.87899e-16
2.50615e-13
-3.03987e-16
2.47041e-13
-3.19135e-16
2.43235e-13
-3.33293e-16
2.39201e-13
-3.46412e-16
2.34947e-13
-3.58443e-16
2.30477e-13
-3.69341e-16
2.25798e-13
-3.79064e-16
2.20918e-13
-3.87569e-16
2.15844e-13
-3.9482e-16
2.10583e-13
-4.00784e-16
2.05145e-13
-4.05433e-16
1.99539e-13
-4.08746e-16
1.93774e-13
-4.10712e-16
1.87861e-13
-4.11328e-16
1.8181e-13
-4.10606e-16
1.75632e-13
-4.08572e-16
1.6934e-13
-4.05265e-16
1.62945e-13
-4.00742e-16
1.5646e-13
-3.95075e-16
1.49898e-13
-3.88346e-16
1.43272e-13
-3.80646e-16
1.36597e-13
-3.72066e-16
1.29886e-13
-3.62693e-16
1.23153e-13
-3.52599e-16
1.16413e-13
-3.41846e-16
1.09681e-13
-3.30478e-16
1.02972e-13
-3.18531e-16
9.63023e-14
-3.06039e-16
8.96879e-14
-2.9305e-16
8.31453e-14
-2.79735e-16
7.66916e-14
-2.66396e-16
7.03441e-14
-2.5315e-16
6.412e-14
-2.43645e-16
5.80401e-14
-2.42487e-16
5.21225e-14
-2.67076e-16
4.63968e-14
-3.27696e-16
4.08727e-14
-4.18723e-16
3.55521e-14
-4.85913e-16
3.04046e-14
-4.96586e-16
2.54707e-14
-3.51208e-16
2.07097e-14
2.39522e-17
1.6197e-14
3.50798e-16
1.2314e-14
4.50304e-16
8.91937e-15
3.58798e-16
5.85487e-15
3.13478e-15
-2.00867e-13
-1.26807e-13
-1.24388e-13
-2.55553e-13
-1.21898e-13
-2.62555e-13
-1.11501e-13
-3.07085e-13
-9.6272e-14
-3.4735e-13
-8.19316e-14
-3.82524e-13
-6.90679e-14
-4.14348e-13
-5.75982e-14
-4.42938e-13
-4.74712e-14
-4.68557e-13
-3.8664e-14
-4.91476e-13
-3.11382e-14
-5.1191e-13
-2.4781e-14
-5.30056e-13
-1.93951e-14
-5.46069e-13
-1.47982e-14
-5.59966e-13
-1.08206e-14
-5.71746e-13
-7.27655e-15
-5.81423e-13
-4.02965e-15
-5.88939e-13
-9.75541e-16
-5.94256e-13
1.96672e-15
-5.97345e-13
4.86143e-15
-5.98188e-13
7.76393e-15
-5.96783e-13
1.07277e-14
-5.93138e-13
1.38534e-14
-5.87317e-13
1.72209e-14
-5.79317e-13
2.13823e-14
-5.69626e-13
2.68481e-14
-5.58208e-13
3.36587e-14
-5.44585e-13
4.15842e-14
-5.2845e-13
5.05672e-14
-5.09895e-13
6.06685e-14
-4.88883e-13
7.21118e-14
-4.65314e-13
8.57596e-14
-4.39406e-13
1.02583e-13
-4.10778e-13
1.2176e-13
-3.78103e-13
1.35882e-13
-3.38319e-13
1.44382e-13
-2.92959e-13
2.31224e-13
-2.80619e-13
-1.34996e-13
3.29075e-15
-2.60704e-16
3.44583e-15
-2.39656e-16
3.65457e-15
-2.96012e-16
3.95782e-15
-4.02522e-16
4.23857e-15
-3.70449e-16
4.46632e-15
-3.03366e-16
4.64593e-15
-2.40634e-16
4.79269e-15
-1.96842e-16
4.91758e-15
-1.67387e-16
5.029e-15
-1.48613e-16
5.13077e-15
-1.35251e-16
5.22467e-15
-1.24465e-16
5.31142e-15
-1.14868e-16
5.39183e-15
-1.06457e-16
5.46679e-15
-9.9218e-17
5.53716e-15
-9.31085e-17
5.60372e-15
-8.80311e-17
5.66717e-15
-8.38705e-17
5.72807e-15
-8.04932e-17
5.78692e-15
-7.77566e-17
5.84407e-15
-7.55231e-17
5.89981e-15
-7.36698e-17
5.95436e-15
-7.21012e-17
6.00787e-15
-7.07504e-17
6.0605e-15
-6.95776e-17
6.11236e-15
-6.85705e-17
6.16359e-15
-6.7732e-17
6.21433e-15
-6.70788e-17
6.26473e-15
-6.66294e-17
6.31495e-15
-6.64022e-17
6.36517e-15
-6.64092e-17
6.41557e-15
-6.66534e-17
6.46631e-15
-6.71314e-17
6.51757e-15
-6.78307e-17
6.56948e-15
-6.8734e-17
6.62218e-15
-6.98174e-17
6.67578e-15
-7.1056e-17
6.73039e-15
-7.24239e-17
6.78608e-15
-7.3896e-17
6.84291e-15
-7.54486e-17
6.90092e-15
-7.70605e-17
6.96015e-15
-7.87135e-17
7.02062e-15
-8.03927e-17
7.08233e-15
-8.20857e-17
7.1453e-15
-8.37833e-17
7.20952e-15
-8.54783e-17
7.27499e-15
-8.71658e-17
7.3417e-15
-8.88426e-17
7.40965e-15
-9.05061e-17
7.47882e-15
-9.21568e-17
7.5492e-15
-9.37928e-17
7.62078e-15
-9.54147e-17
7.69357e-15
-9.70226e-17
7.76753e-15
-9.86168e-17
7.84267e-15
-1.00198e-16
7.91898e-15
-1.01765e-16
7.99644e-15
-1.03319e-16
8.07505e-15
-1.04861e-16
8.15479e-15
-1.06388e-16
8.23567e-15
-1.07903e-16
8.31766e-15
-1.09403e-16
8.40076e-15
-1.1089e-16
8.48495e-15
-1.12363e-16
8.57024e-15
-1.13822e-16
8.6566e-15
-1.15266e-16
8.74403e-15
-1.16697e-16
8.83251e-15
-1.18115e-16
8.92205e-15
-1.19519e-16
9.01262e-15
-1.20911e-16
9.10422e-15
-1.22291e-16
9.19684e-15
-1.2366e-16
9.29048e-15
-1.25019e-16
9.38513e-15
-1.26368e-16
9.48077e-15
-1.27709e-16
9.57741e-15
-1.29043e-16
9.67505e-15
-1.3037e-16
9.77367e-15
-1.31692e-16
9.87328e-15
-1.33011e-16
9.97387e-15
-1.34326e-16
1.00754e-14
-1.35641e-16
1.0178e-14
-1.36955e-16
1.02815e-14
-1.3827e-16
1.03861e-14
-1.39587e-16
1.04916e-14
-1.40907e-16
1.05981e-14
-1.42231e-16
1.07056e-14
-1.4356e-16
1.0814e-14
-1.44896e-16
1.09235e-14
-1.4624e-16
1.1034e-14
-1.47592e-16
1.11456e-14
-1.48953e-16
1.12581e-14
-1.50324e-16
1.13717e-14
-1.51707e-16
1.14863e-14
-1.53103e-16
1.1602e-14
-1.54511e-16
1.17187e-14
-1.55933e-16
1.18365e-14
-1.57369e-16
1.19554e-14
-1.58821e-16
1.20754e-14
-1.60288e-16
1.21965e-14
-1.61771e-16
1.23187e-14
-1.63271e-16
1.2442e-14
-1.64787e-16
1.25665e-14
-1.6632e-16
1.26922e-14
-1.67871e-16
1.2819e-14
-1.6944e-16
1.2947e-14
-1.71027e-16
1.30762e-14
-1.72631e-16
1.32066e-14
-1.74255e-16
1.33382e-14
-1.75898e-16
1.34711e-14
-1.7756e-16
1.36052e-14
-1.79241e-16
1.37407e-14
-1.80943e-16
1.38773e-14
-1.82665e-16
1.40153e-14
-1.84409e-16
1.41546e-14
-1.86175e-16
1.42953e-14
-1.87964e-16
1.44373e-14
-1.89777e-16
1.45806e-14
-1.91614e-16
1.47254e-14
-1.93477e-16
1.48716e-14
-1.95366e-16
1.50192e-14
-1.97282e-16
1.51682e-14
-1.99227e-16
1.53187e-14
-2.012e-16
1.54707e-14
-2.03203e-16
1.56243e-14
-2.05236e-16
1.57793e-14
-2.07299e-16
1.59359e-14
-2.09394e-16
1.60942e-14
-2.1152e-16
1.6254e-14
-2.13678e-16
1.64154e-14
-2.15868e-16
1.65785e-14
-2.1809e-16
1.67433e-14
-2.20345e-16
1.69098e-14
-2.22631e-16
1.7078e-14
-2.24951e-16
1.7248e-14
-2.27303e-16
1.74198e-14
-2.29687e-16
1.75933e-14
-2.32104e-16
1.77687e-14
-2.34554e-16
1.79459e-14
-2.37038e-16
1.8125e-14
-2.39556e-16
1.8306e-14
-2.42108e-16
1.84889e-14
-2.44696e-16
1.86738e-14
-2.47321e-16
1.88607e-14
-2.49983e-16
1.90496e-14
-2.52685e-16
1.92405e-14
-2.55425e-16
1.94335e-14
-2.58208e-16
1.96286e-14
-2.61033e-16
1.98258e-14
-2.63905e-16
2.00252e-14
-2.66824e-16
2.02268e-14
-2.69794e-16
2.04307e-14
-2.72817e-16
2.06369e-14
-2.75897e-16
2.08454e-14
-2.79037e-16
2.10563e-14
-2.82242e-16
2.12696e-14
-2.85517e-16
2.14854e-14
-2.88869e-16
2.17038e-14
-2.92306e-16
2.19248e-14
-2.95837e-16
2.21485e-14
-2.99473e-16
2.23751e-14
-3.03229e-16
2.26045e-14
-3.07121e-16
2.28369e-14
-3.11169e-16
2.30724e-14
-3.15402e-16
2.33113e-14
-3.19852e-16
2.35537e-14
-3.24563e-16
2.37998e-14
-3.29593e-16
2.405e-14
-3.35015e-16
2.43045e-14
-3.40929e-16
2.45639e-14
-3.47468e-16
2.48288e-14
-3.54816e-16
2.50999e-14
-3.6323e-16
2.53784e-14
-3.7308e-16
2.56657e-14
-3.84928e-16
2.59641e-14
-3.99667e-16
2.62769e-14
-4.18847e-16
2.66095e-14
-4.45407e-16
2.697e-14
-4.85008e-16
2.73683e-14
-5.47077e-16
2.78146e-14
-6.43411e-16
2.83144e-14
-7.81938e-16
2.88692e-14
-9.5729e-16
2.94761e-14
-1.14734e-15
3.01342e-14
-1.31926e-15
3.08389e-14
-1.44591e-15
3.16085e-14
-1.52417e-15
3.24621e-14
-1.6087e-15
3.33273e-14
-1.77161e-15
3.40833e-14
-1.94345e-15
3.43926e-14
-1.75809e-15
3.52228e-14
-8.6224e-16
3.64532e-14
-2.3055e-16
3.60884e-14
3.46169e-17
4.23701e-14
9.15041e-16
3.69013e-14
-3.5061e-15
5.25941e-14
9.22897e-15
4.89382e-14
-1.51817e-14
5.53372e-14
2.02749e-14
-2.38694e-16
8.3322e-15
1.70993e-14
1.03699e-14
1.94221e-14
-1.40189e-14
1.84858e-14
1.74534e-14
2.43561e-14
-8.73622e-15
2.54117e-14
-2.7337e-15
2.85755e-14
-5.10867e-15
2.68433e-14
-1.19106e-15
3.0559e-14
2.50311e-16
3.7252e-14
-3.40512e-15
3.81718e-14
-6.74539e-15
4.14942e-14
-7.95509e-15
4.47201e-14
-6.0956e-15
4.22096e-14
-1.1983e-15
4.40361e-14
2.70014e-15
3.59769e-14
1.20149e-15
4.46331e-14
5.05942e-15
3.55006e-14
-4.43002e-15
4.68714e-14
9.01586e-15
4.35525e-14
-1.12441e-14
4.67566e-14
1.35067e-14
2.34958e-14
8.55571e-15
3.28814e-14
3.90589e-15
2.56451e-14
-5.79828e-15
3.02092e-14
7.16596e-15
3.73725e-14
-1.07317e-14
3.95781e-14
-4.48587e-15
3.86232e-14
-2.50844e-15
3.47503e-14
9.26747e-16
4.30595e-14
2.30185e-15
4.32638e-14
-1.70925e-15
4.06098e-14
-1.38673e-15
4.14117e-14
-1.29428e-15
4.30414e-14
-2.66938e-15
4.55352e-14
-3.68189e-15
4.72999e-14
-3.12182e-15
4.82045e-14
-1.26909e-15
4.78389e-14
-4.71903e-16
4.73729e-14
-9.79199e-16
4.79635e-14
-8.26488e-16
4.8867e-14
-3.08641e-16
4.9376e-14
-6.26523e-16
4.99092e-14
-9.77707e-16
5.06683e-14
-1.08517e-15
5.12292e-14
-1.00785e-15
5.20046e-14
-7.92582e-16
5.26939e-14
-7.42032e-16
5.35102e-14
-8.15036e-16
5.42136e-14
-1.04414e-15
5.49702e-14
-1.23503e-15
5.58033e-14
-1.32335e-15
5.67037e-14
-1.35176e-15
5.74863e-14
-1.34925e-15
5.85233e-14
-1.26511e-15
5.94018e-14
-1.32735e-15
6.03886e-14
-1.39196e-15
6.1439e-14
-1.51779e-15
6.23956e-14
-1.72203e-15
6.33618e-14
-1.71742e-15
6.45643e-14
-1.52013e-15
6.56443e-14
-1.48698e-15
6.68383e-14
-1.56118e-15
6.7994e-14
-1.72982e-15
6.92166e-14
-1.85208e-15
7.04912e-14
-1.86643e-15
7.1804e-14
-1.73491e-15
7.3131e-14
-1.40121e-15
7.52418e-14
-1.08192e-15
7.82088e-14
-1.58722e-15
8.20428e-14
-3.43597e-15
8.75614e-14
-6.86756e-15
9.62277e-14
-1.25413e-14
1.07735e-13
-2.15123e-14
1.16672e-13
-3.11258e-14
1.06575e-13
-2.49812e-14
1.54134e-13
1.84488e-15
1.59825e-13
-1.09312e-14
1.83568e-13
1.94751e-14
2.08608e-13
-3.864e-14
1.98213e-13
1.57023e-13
2.4897e-13
-1.92922e-13
1.44472e-13
1.69406e-13
2.22643e-13
-1.85874e-13
1.57874e-13
9.07617e-14
1.00824e-13
-4.88085e-13
3.94759e-14
-1.23805e-13
5.70533e-14
-1.69164e-13
-5.37776e-13
-2.47274e-13
1.05083e-13
-1.66006e-13
-1.99987e-13
-3.07009e-13
2.13606e-13
-2.25824e-13
-2.46556e-13
-2.68277e-13
2.13888e-13
-2.24856e-13
-6.00199e-14
-1.94207e-13
2.97661e-14
-1.84171e-13
-3.39675e-14
-1.34974e-13
-1.33029e-14
-1.2864e-13
-2.41172e-14
-1.16474e-13
-2.89052e-14
-1.05191e-13
-2.40179e-14
-9.44519e-14
-1.72055e-14
-8.78271e-14
-1.21632e-14
-8.25363e-14
-7.57194e-15
-7.89132e-14
-3.61902e-15
-7.53356e-14
-7.37459e-16
-7.31731e-14
-5.26691e-17
-7.1711e-14
-8.37225e-16
-7.03067e-14
-1.85753e-15
-6.87751e-14
-2.57688e-15
-6.7309e-14
-2.91107e-15
-6.58092e-14
-2.78483e-15
-6.4332e-14
-2.38622e-15
-6.29961e-14
-1.98264e-15
-6.1999e-14
-1.62117e-15
-6.11059e-14
-1.11506e-15
-6.02364e-14
-5.75222e-16
-5.92311e-14
-2.80977e-16
-5.84883e-14
-5.03648e-16
-5.80256e-14
-9.00556e-16
-5.73029e-14
-1.00964e-15
-5.65781e-14
-1.00782e-15
-5.581e-14
-9.56586e-16
-5.48972e-14
-9.6073e-16
-5.42391e-14
-1.16947e-15
-5.33651e-14
-1.30992e-15
-5.25459e-14
-1.40752e-15
-5.16332e-14
-1.39353e-15
-5.08841e-14
-1.36507e-15
-5.00175e-14
-1.25682e-15
-4.93283e-14
-1.11665e-15
-4.85967e-14
-8.83903e-16
-4.80776e-14
-7.57561e-16
-4.76678e-14
-5.31852e-16
-4.76874e-14
-1.78486e-16
-4.78963e-14
-3.16073e-16
-4.72357e-14
-1.54279e-15
-4.53805e-14
-3.58646e-15
-4.31455e-14
-4.44012e-15
-4.12382e-14
-3.2631e-15
-3.95301e-14
-1.50332e-15
-4.18857e-14
-1.06509e-15
-4.26866e-14
-9.90115e-16
-3.47896e-14
2.6506e-15
-3.81712e-14
8.26614e-16
-3.94079e-14
-2.1806e-15
-3.70457e-14
-4.32155e-15
-2.98369e-14
-1.02226e-14
-2.55894e-14
5.62356e-15
-3.26982e-14
-3.97375e-15
-2.57164e-14
3.89457e-15
-4.4828e-14
7.98567e-15
-4.27878e-14
1.20734e-14
-4.58011e-14
-1.02097e-14
-3.52842e-14
8.06558e-15
-4.39154e-14
-3.97743e-15
-3.56551e-14
5.07433e-15
-4.36972e-14
1.50197e-15
-4.21046e-14
2.7628e-15
-4.46292e-14
-1.12495e-15
-4.13218e-14
-6.00838e-15
-3.82106e-14
-7.74693e-15
-3.73029e-14
-6.47156e-15
-3.09024e-14
-3.0071e-15
-2.74653e-14
5.34721e-16
-2.92289e-14
-9.93105e-16
-2.60756e-14
-4.72418e-15
-2.45782e-14
-2.90073e-15
-1.90165e-14
-8.16755e-15
-2.08921e-14
1.52955e-14
-1.73451e-14
-1.4067e-14
6.4649e-16
1.00332e-14
-5.11202e-14
7.12062e-15
-4.45131e-14
1.80845e-14
-4.96986e-14
-1.30084e-14
-3.45883e-14
7.52736e-15
-3.96954e-14
-2.47035e-15
-3.53256e-14
5.07921e-16
-3.48417e-14
6.58569e-16
-3.44249e-14
2.58533e-16
-3.3487e-14
-2.79391e-16
-3.34775e-14
-1.35687e-15
-3.2856e-14
-1.70134e-15
-3.21174e-14
-1.6262e-15
-3.13355e-14
-1.51023e-15
-3.06191e-14
-1.45166e-15
-2.9954e-14
-1.39207e-15
-2.93261e-14
-1.27913e-15
-2.87424e-14
-1.11706e-15
-2.82057e-14
-9.33878e-16
-2.77203e-14
-7.63329e-16
-2.72855e-14
-6.28259e-16
-2.68966e-14
-5.34532e-16
-2.6544e-14
-4.74514e-16
-2.62179e-14
-4.36565e-16
-2.59107e-14
-4.11346e-16
-2.56171e-14
-3.93256e-16
-2.53339e-14
-3.79403e-16
-2.5059e-14
-3.6828e-16
-2.4791e-14
-3.59028e-16
-2.45289e-14
-3.51112e-16
-2.42719e-14
-3.44183e-16
-2.40195e-14
-3.38e-16
-2.37713e-14
-3.32391e-16
-2.3527e-14
-3.27233e-16
-2.32862e-14
-3.22436e-16
-2.30487e-14
-3.17929e-16
-2.28144e-14
-3.13662e-16
-2.25832e-14
-3.09595e-16
-2.23548e-14
-3.05694e-16
-2.21293e-14
-3.01935e-16
-2.19064e-14
-2.98299e-16
-2.16862e-14
-2.94771e-16
-2.14686e-14
-2.91336e-16
-2.12534e-14
-2.87986e-16
-2.10407e-14
-2.84711e-16
-2.08303e-14
-2.81504e-16
-2.06223e-14
-2.7836e-16
-2.04166e-14
-2.75274e-16
-2.02132e-14
-2.72242e-16
-2.0012e-14
-2.69261e-16
-1.98129e-14
-2.66327e-16
-1.96161e-14
-2.63439e-16
-1.94213e-14
-2.60593e-16
-1.92286e-14
-2.57789e-16
-1.9038e-14
-2.55025e-16
-1.88494e-14
-2.523e-16
-1.86628e-14
-2.49613e-16
-1.84782e-14
-2.46962e-16
-1.82955e-14
-2.44348e-16
-1.81148e-14
-2.41769e-16
-1.79359e-14
-2.39225e-16
-1.77589e-14
-2.36715e-16
-1.75838e-14
-2.34239e-16
-1.74105e-14
-2.31795e-16
-1.7239e-14
-2.29384e-16
-1.70692e-14
-2.27006e-16
-1.69012e-14
-2.2466e-16
-1.67349e-14
-2.22346e-16
-1.65703e-14
-2.20065e-16
-1.64074e-14
-2.17815e-16
-1.62462e-14
-2.15598e-16
-1.60866e-14
-2.13411e-16
-1.59286e-14
-2.11256e-16
-1.57721e-14
-2.0913e-16