/*--------------------------------*- C++ -*----------------------------------*\
| =========                 |                                                 |
| \\      /  F ield         | OpenFOAM: The Open Source CFD Toolbox           |
|  \\    /   O peration     | Version:  2.2.1                                 |
|   \\  /    A nd           | Web:      www.OpenFOAM.org                      |
|    \\/     M anipulation  |                                                 |
\*---------------------------------------------------------------------------*/
FoamFile
{
    version     2.0;
    format      ascii;
    class       volVectorField;
    location    "4.5e-05";
    object      U;
}
// * * * * * * * * * * * * * * * * * * * * * * * * * * * * * * * * * * * * * //

dimensions      [0 1 -1 0 0 0 0];

internalField   nonuniform List<vector> 
22464
(
(-0.280237 1.36647 7.44902e-43)
(-0.254658 1.49895 -2.0285e-42)
(0.299477 0.646691 0)
(-0.0359613 0.0989124 -7.41584e-43)
(0.078584 0.00510603 -9.54871e-43)
(-0.0689219 -0.0517021 9.01115e-43)
(0.118042 -0.0989584 -2.56168e-42)
(-0.161981 -0.203459 2.45533e-42)
(0.00524028 0.0522232 0)
(-0.0896951 0.0933317 8.19505e-43)
(-0.00529268 0.152087 5.19336e-45)
(-0.0675528 0.16082 -5.01221e-43)
(-0.0115335 0.184741 -3.20926e-43)
(-0.00409653 0.146322 -1.21913e-43)
(-0.00329032 0.105843 0)
(-0.0061776 0.0790812 1.08399e-43)
(-0.00471094 0.0634478 2.21967e-43)
(-0.00637994 0.0533679 -2.88111e-43)
(-0.00825886 0.0504032 -2.74812e-43)
(-0.0115774 0.0539484 0)
(-0.0115176 0.0606273 1.10191e-44)
(-0.010269 0.0647234 -5.09178e-44)
(-0.00907369 0.0652129 0)
(-0.00812773 0.0632564 1.01311e-45)
(-0.00723241 0.0599834 0)
(-0.00690301 0.0563738 6.87054e-45)
(-0.00690891 0.0534295 5.90745e-44)
(-0.00688297 0.0513289 3.6782e-45)
(-0.00665148 0.049671 -6.06065e-52)
(-0.0069072 0.0485538 1.1054e-43)
(-0.00748188 0.0486296 2.42977e-44)
(-0.00810988 0.0499125 -1.82482e-44)
(-0.00772104 0.0512188 8.45606e-45)
(-0.00694249 0.0511404 -4.55382e-45)
(-0.00696616 0.0501841 -1.67606e-44)
(-0.00687463 0.0493819 -2.42066e-44)
(-0.00690257 0.0487863 -1.57857e-44)
(-0.00700387 0.0484299 -2.10257e-44)
(-0.00641295 0.0477907 -4.04938e-44)
(-0.00631416 0.04658 -1.442e-44)
(-0.00597777 0.0452491 -1.11017e-45)
(-0.00588652 0.0438249 -2.19637e-45)
(-0.00555095 0.0424177 1.39176e-44)
(-0.00558662 0.0410735 -2.76063e-45)
(-0.0053972 0.0400151 -6.06485e-44)
(-0.00556271 0.0392273 7.59222e-52)
(-0.00537829 0.0387304 6.24422e-44)
(-0.00538798 0.0382633 2.9296e-44)
(-0.00524454 0.0378798 3.13064e-44)
(-0.00485408 0.037143 9.01531e-44)
(-0.00433118 0.0354689 -2.9189e-52)
(-0.00295892 0.0320882 -8.56746e-44)
(-0.00172535 0.0269236 1.37498e-43)
(-0.00204274 0.0222461 1.95598e-43)
(-0.00326233 0.0199252 -1.41177e-43)
(0.00139149 0.0160385 8.95549e-52)
(0.000233827 0.0105598 7.97005e-43)
(-0.0144959 0.0188841 -9.56215e-44)
(-0.00182159 0.0308741 -1.70167e-43)
(0.000299375 0.0250846 2.41536e-43)
(-0.000625779 0.0170295 -1.06513e-51)
(0.00204643 0.0106174 -5.93418e-43)
(-0.0135655 0.0160129 -5.24259e-43)
(0.00950215 0.0182671 1.45525e-43)
(-0.0121215 0.0142647 2.5072e-43)
(0.00936912 0.0174645 3.48191e-43)
(-0.0171446 0.0179917 3.60217e-43)
(0.0107958 0.0242755 -1.89015e-43)
(-0.0243133 0.024525 -4.86753e-43)
(0.0079206 0.0378205 7.42426e-43)
(-0.0193311 0.0358222 -6.3809e-44)
(0.000334696 0.0465711 -4.62974e-43)
(-0.0106295 0.0440472 -1.20345e-43)
(-0.0027701 0.0451824 -2.7783e-43)
(-0.00247412 0.0373342 -2.07039e-44)
(0.000915149 0.0267225 9.91945e-44)
(0.00347694 0.0139401 4.02298e-43)
(-0.00575551 0.00999479 -1.98153e-43)
(-0.00765566 0.0186497 -1.38792e-43)
(-0.000567067 0.0222423 -1.66763e-44)
(-0.00064862 0.0169729 8.82802e-44)
(-0.000722087 0.0118041 -1.4162e-43)
(0.00252024 0.00710764 -1.6148e-43)
(-0.0190815 0.0177301 3.26439e-43)
(0.00821338 0.0275822 -3.20826e-43)
(-0.0332134 0.0395255 1.30389e-42)
(0.0426481 0.0298649 1.14337e-42)
(-0.0233163 -0.00192154 -5.8159e-43)
(0.017345 0.0113266 -9.11012e-43)
(-0.0269194 0.00968811 2.40981e-43)
(0.0026022 0.0334655 1.21002e-43)
(-0.0098009 0.0310271 1.11595e-43)
(-0.00701638 0.0375413 1.27849e-43)
(-0.00668504 0.0406516 1.70473e-43)
(-0.00684946 0.0422659 1.96158e-43)
(-0.00454347 0.0416104 0)
(-0.00437751 0.03851 -1.23985e-43)
(-0.00426181 0.035778 -2.01468e-43)
(-0.00413771 0.0336245 -2.32329e-51)
(-0.00385306 0.0317319 6.4735e-44)
(-0.00358098 0.0298479 0)
(-0.0033979 0.0280485 -2.44313e-45)
(-0.00329697 0.0264899 1.36928e-45)
(-0.00326311 0.0252631 -7.73189e-47)
(-0.0032587 0.0243751 0)
(-0.0032548 0.0237598 -1.34677e-45)
(-0.0032366 0.0233222 -3.42558e-45)
(-0.00320659 0.0229796 -1.85978e-45)
(-0.00317116 0.0226818 -4.69708e-46)
(-0.00313484 0.0224058 -5.61703e-46)
(-0.00309934 0.0221428 -1.81923e-45)
(-0.00306483 0.0218895 -7.61875e-46)
(-0.00303122 0.0216442 -8.50844e-46)
(-0.00299838 0.0214054 -9.32458e-46)
(-0.0029662 0.0211723 -2.03063e-45)
(-0.00293462 0.0209441 0)
(-0.00290356 0.0207202 0)
(-0.002873 0.0205002 -1.21039e-45)
(-0.00284288 0.0202839 -2.22423e-45)
(-0.00281319 0.0200708 0)
(-0.0027839 0.0198608 0)
(-0.002755 0.0196537 -9.1702e-54)
(-0.00272647 0.0194494 -9.01932e-46)
(-0.00269829 0.0192477 -2.43741e-45)
(-0.00267045 0.0190485 -2.47704e-45)
(-0.00264295 0.0188518 0)
(-0.00261577 0.0186575 0)
(-0.00258891 0.0184655 -2.59126e-45)
(-0.00256235 0.0182757 -2.62793e-45)
(-0.0025361 0.0180881 0)
(-0.00251014 0.0179026 0)
(-0.00248448 0.0177193 0)
(-0.0024591 0.017538 0)
(-0.002434 0.0173588 -2.80087e-45)
(-0.00240918 0.0171815 -2.83347e-45)
(-0.00238463 0.0170062 -2.08824e-45)
(-0.00236035 0.0168328 -2.89659e-45)
(-0.00233633 0.0166613 0)
(-0.00231257 0.0164917 0)
(-0.00228907 0.0163239 -2.98642e-45)
(-0.00226582 0.0161579 -3.01521e-45)
(-0.00224283 0.0159937 0)
(-0.00222008 0.0158313 0)
(-0.00219757 0.0156706 3.81148e-45)
(-0.0021753 0.0155117 3.12391e-45)
(-0.00215327 0.0153544 -3.14949e-45)
(-0.00213147 0.0151988 -2.48266e-45)
(-0.0021099 0.0150449 0)
(-0.00208855 0.0148926 -6.7764e-46)
(-0.00206744 0.0147419 0)
(-0.00204654 0.0145927 0)
(-0.00202586 0.0144452 0)
(-0.00200539 0.0142991 -3.31158e-45)
(-0.00198514 0.0141546 -3.33236e-45)
(-0.00196509 0.0140116 3.35256e-45)
(-0.00194525 0.0138701 6.74435e-45)
(-0.00192562 0.01373 6.78236e-45)
(-0.00190618 0.0135913 4.02815e-45)
(-0.00188694 0.0134541 -3.4275e-45)
(-0.00186789 0.0133182 -3.44492e-45)
(-0.00184904 0.0131838 -2.86157e-45)
(-0.00183037 0.0130506 -3.47853e-45)
(-0.00181189 0.0129189 0)
(-0.00179359 0.0127884 5.8288e-46)
(-0.00177547 0.0126592 -3.52616e-45)
(-0.00175753 0.0125313 -5.71621e-46)
(-0.00173977 0.0124046 5.66106e-46)
(-0.00172218 0.0122792 -3.57118e-45)
(-0.00170475 0.012155 0)
(-0.0016875 0.012032 -3.59993e-45)
(-0.00167041 0.0119102 -3.61391e-45)
(-0.00165349 0.0117896 -3.08796e-45)
(-0.00163672 0.0116701 -7.28216e-45)
(-0.00162012 0.0115518 -5.29535e-46)
(-0.00160367 0.0114346 5.24571e-46)
(-0.00158738 0.0113185 -7.36011e-45)
(-0.00157125 0.0112035 -4.20744e-45)
(-0.00155526 0.0110896 -3.7049e-45)
(-0.00153943 0.0109768 -7.43397e-45)
(-0.00152374 0.010865 -4.22959e-45)
(-0.0015082 0.0107543 -3.74052e-45)
(-0.0014928 0.0106446 -3.75193e-45)
(-0.00147754 0.0105359 3.76311e-45)
(-0.00146243 0.0104282 7.54809e-45)
(-0.00144745 0.0103216 7.56952e-45)
(-0.00143261 0.0102159 4.26923e-45)
(-0.00141791 0.0101111 -3.80558e-45)
(-0.00140334 0.0100073 -3.8157e-45)
(-0.0013889 0.00990452 -3.3644e-45)
(-0.0013746 0.00980264 -7.67077e-45)
(-0.00136042 0.00970168 -3.84493e-45)
(-0.00134638 0.00960165 3.85427e-45)
(-0.00133246 0.00950253 4.85733e-53)
(-0.00131867 0.00940431 -4.40809e-46)
(-0.00130501 0.00930699 4.36818e-46)
(-0.00129147 0.00921056 -3.88994e-45)
(-0.00127805 0.00911502 0)
(-0.00126477 0.00902036 -3.90677e-45)
(-0.0012516 0.00892658 -3.9149e-45)
(-0.00123856 0.00883367 -3.50565e-45)
(-0.00122564 0.00874165 -7.86127e-45)
(-0.00121285 0.00865049 -4.09416e-46)
(-0.00120018 0.00856021 4.05519e-46)
(-0.00118764 0.0084708 -7.90595e-45)
(-0.00117522 0.00838226 -4.35784e-45)
(-0.00116292 0.0082946 3.96709e-45)
(-0.00115075 0.00820781 3.97387e-45)
(-0.00113871 0.00812191 -3.8599e-46)
(-0.00112679 0.0080369 -3.98685e-45)
(-0.001115 0.00795278 -3.78073e-46)
(-0.00110334 0.00786956 3.99899e-45)
(-0.00109181 0.00778725 -4.00475e-45)
(-0.00108041 0.00770584 -1.37015e-52)
(-0.00106915 0.00762536 8.03112e-45)
(-0.00105801 0.0075458 3.57819e-46)
(-0.00104701 0.00746718 -4.02535e-45)
(-0.00103615 0.0073895 -3.68034e-45)
(-0.00102542 0.00731278 -8.06808e-45)
(-0.00101484 0.00723702 -3.41038e-46)
(-0.00100439 0.00716224 3.36753e-46)
(-0.000994085 0.00708844 -4.04489e-45)
(-0.000983924 0.00701563 3.71976e-45)
(-0.000973906 0.00694383 3.23678e-46)
(-0.000964035 0.00687304 -4.05262e-45)
(-0.000954311 0.00680328 0)
(-0.000944736 0.00673454 -4.0558e-45)
(-0.00093531 0.00666685 -3.05769e-46)
(-0.000926035 0.00660021 4.05731e-45)
(-0.000916911 0.00653462 -4.05739e-45)
(-0.00090794 0.0064701 -2.92085e-46)
(-0.000899121 0.00640664 2.87495e-46)
(-0.000890456 0.00634426 -8.10923e-45)
(-0.000881944 0.00628295 -4.33092e-45)
(-0.000873585 0.00622272 -4.05003e-45)
(-0.00086538 0.00616356 -4.04685e-45)
(-0.000857327 0.00610548 0)
(-0.000849425 0.00604847 -4.03859e-45)
(-0.000841674 0.00599252 -2.55696e-46)
(-0.00083407 0.00593763 4.02767e-45)
(-0.000826614 0.00588377 -4.02117e-45)
(-0.0008193 0.00583095 -4.25671e-45)
(-0.000812128 0.00577913 0)
(-0.000805092 0.0057283 -3.9973e-45)
(-0.000798189 0.00567844 -3.98781e-45)
(-0.000791415 0.00562951 -3.75046e-45)
(-0.000784763 0.00558148 -7.93263e-45)
(-0.000778228 0.00553433 -3.95428e-45)
(-0.000771803 0.00548799 -3.94138e-45)
(-0.00076548 0.00544243 -3.92756e-45)
(-0.000759251 0.0053976 -4.22953e-46)
(-0.000753107 0.00535343 -3.8971e-45)
(-0.000747036 0.00530986 -7.76084e-45)
(-0.000741026 0.0052668 -3.86274e-45)
(-0.000735062 0.00522419 -3.84405e-45)
(-0.000729129 0.00518191 -3.82434e-45)
(-0.000723207 0.00513986 2.99369e-62)
(-0.000717277 0.0050979 -3.78192e-45)
(-0.000711313 0.00505591 -3.75927e-45)
(-0.000705292 0.00501371 -2.06845e-46)
(-0.000699186 0.00497114 -3.50201e-45)
(-0.000692966 0.00492801 -3.68644e-45)
(-0.000686599 0.00488411 -3.66078e-45)
(-0.000680049 0.00483922 4.45466e-46)
(-0.000673275 0.00479309 3.60774e-45)
(-0.000666225 0.00474543 3.58065e-45)
(-0.000658841 0.00469591 6.8607e-45)
(-0.000651058 0.00464413 3.26976e-45)
(-0.00064281 0.00458969 -3.5017e-45)
(-0.000634047 0.00453213 -5.67733e-46)
(-0.000624735 0.00447107 3.75607e-45)
(-0.000614836 0.00440613 3.18645e-46)
(-0.000604269 0.00433697 -3.07501e-45)
(-0.000592952 0.00426311 -3.75396e-45)
(-0.000580777 0.00418404 -3.88346e-46)
(-0.00056744 0.00409891 -4.20147e-46)
(-0.000552642 0.00400578 -4.52996e-46)
(-0.00053558 0.00389646 0)
(-0.000514229 0.00375871 4.97766e-46)
(-0.000489127 0.00358735 -5.21717e-46)
(-0.000448314 0.00337709 -5.33814e-46)
(-0.000415686 0.00316163 -1.6367e-45)
(-0.000376445 0.00296975 -1.76452e-45)
(-0.000327678 0.00276022 -8.49932e-46)
(-0.000259868 0.00249631 -1.35143e-45)
(-7.81177e-05 0.0019458 -1.00076e-45)
(7.79161e-05 0.00192962 8.02701e-46)
(0.000256756 0.0024631 -1.40955e-46)
(0.000323531 0.00272732 1.64345e-47)
(0.000374323 0.0029545 1.24155e-46)
(0.000413757 0.00318797 1.24912e-45)
(0.000458302 0.00340676 -4.1571e-47)
(0.000487071 0.00358623 -3.09209e-47)
(0.000511147 0.00373643 -5.20016e-46)
(0.000530984 0.00386265 4.95214e-46)
(0.000548143 0.00397203 4.50328e-46)
(0.000563244 0.00406926 4.17709e-46)
(0.000576874 0.00415744 -1.62974e-48)
(0.000589365 0.00423846 3.62458e-46)
(0.000600915 0.0043133 -3.39207e-46)
(0.000611598 0.0043827 0)
(0.00062153 0.00444735 -2.99545e-46)
(0.000630787 0.00450786 -5.2794e-50)
(0.000639442 0.00456485 -3.23738e-45)
(0.000647572 0.00461889 -2.18287e-50)
(0.000655261 0.00467054 3.81033e-45)
(0.000662594 0.00472026 -3.59078e-45)
(0.000669644 0.00476845 -3.38569e-45)
(0.000676473 0.00481539 3.1584e-52)
(0.000683126 0.00486129 -3.6664e-45)
(0.000689636 0.0049063 -7.16216e-45)
(0.000696024 0.00495053 -5.02977e-52)
(0.000702306 0.00499409 4.15163e-45)
(0.000708492 0.00503707 2.06971e-46)
(0.000714593 0.00507957 2.0505e-46)
(0.000720623 0.00512172 2.03732e-46)
(0.000726597 0.00516365 3.81717e-45)
(0.000732533 0.00520554 3.83802e-45)
(0.000738454 0.00524752 -3.85852e-45)
(0.000744381 0.00528977 -7.75696e-45)
(0.00075034 0.00533245 -3.89771e-45)
(0.000756352 0.0053757 4.17731e-46)
(0.000762441 0.00541965 -3.93327e-45)
(0.000768627 0.00546442 -3.94934e-45)
(0.000774927 0.0055101 -3.96419e-45)
(0.000781355 0.00555677 -7.95554e-45)
(0.000787923 0.00560449 -4.21675e-45)
(0.000794642 0.0056533 -4.00117e-45)
(0.000801516 0.00570324 -4.01108e-45)
(0.000808552 0.00575431 0)
(0.000815752 0.00580654 -3.7828e-45)
(0.000823117 0.00585992 -4.03437e-45)
(0.000830647 0.00591445 4.04023e-45)
(0.000838342 0.00597012 2.58993e-46)
(0.000846201 0.00602692 -4.04956e-45)
(0.000854222 0.00608484 0)
(0.000862404 0.00614387 -4.05613e-45)
(0.000870745 0.006204 -4.05848e-45)
(0.000879242 0.00626522 -3.77789e-45)
(0.000887896 0.00632751 -8.12297e-45)
(0.000896702 0.00639087 -2.91502e-46)
(0.000905661 0.00645528 2.96025e-46)
(0.00091477 0.00652073 -4.06227e-45)
(0.000924028 0.00658722 4.06165e-45)
(0.000933433 0.00665474 3.09402e-46)
(0.000942985 0.00672327 -4.05919e-45)
(0.000952682 0.00679281 0)
(0.000962522 0.00686334 -4.05519e-45)
(0.000972504 0.00693486 -3.26725e-46)
(0.000982627 0.00700736 4.38062e-45)
(0.000992889 0.00708082 -4.04634e-45)
(0.00100329 0.00715524 -3.39337e-46)
(0.00101383 0.00723062 3.43472e-46)
(0.0010245 0.00730692 -8.06908e-45)
(0.0010353 0.00738416 -4.38168e-45)
(0.00104624 0.00746232 -4.02526e-45)
(0.00105731 0.00754139 -3.59669e-46)
(0.00106851 0.00762135 8.02996e-45)
(0.00107984 0.00770222 2.21051e-53)
(0.00109129 0.00778397 -4.00383e-45)
(0.00110287 0.00786661 3.99795e-45)
(0.00111458 0.00795012 3.79296e-46)
(0.00112641 0.0080345 -3.9856e-45)
(0.00113836 0.00811976 3.87008e-46)
(0.00115044 0.00820587 3.97252e-45)
(0.00116265 0.00829285 3.96573e-45)
(0.00117497 0.0083807 -3.56028e-45)
(0.00118742 0.0084694 -7.90342e-45)
(0.00119998 0.00855896 -4.06189e-46)
(0.00121267 0.00864938 4.1004e-46)
(0.00122549 0.00874067 -7.85916e-45)
(0.00123842 0.00883282 -4.3397e-45)
(0.00125148 0.00892584 -3.91414e-45)
(0.00126466 0.00901973 -3.90621e-45)
(0.00127796 0.0091145 0)
(0.00129139 0.00921015 -3.88991e-45)
(0.00130494 0.00930668 -4.3738e-46)
(0.00131862 0.00940412 4.41382e-46)
(0.00133243 0.00950246 1.21555e-53)
(0.00134636 0.0096017 3.8551e-45)
(0.00136043 0.00970187 -3.84591e-45)
(0.00137462 0.00980297 -7.67302e-45)
(0.00138894 0.009905 -4.28886e-45)
(0.0014034 0.010008 -3.81714e-45)
(0.00141799 0.0101119 -3.80714e-45)
(0.00143272 0.0102168 3.32215e-45)
(0.00144758 0.0103227 7.57282e-45)
(0.00146258 0.0104296 7.55131e-45)
(0.00147772 0.0105375 3.76462e-45)
(0.00149301 0.0106463 -3.75331e-45)
(0.00150843 0.0107563 -3.74172e-45)
(0.00152401 0.0108672 -3.2282e-45)
(0.00153973 0.0109792 -7.43553e-45)
(0.00155559 0.0110923 -3.70541e-45)
(0.00157161 0.0112064 -3.17697e-45)
(0.00158778 0.0113216 -7.35988e-45)
(0.0016041 0.0114379 -5.25554e-46)
(0.00162058 0.0115554 5.30508e-46)
(0.00163722 0.0116739 -7.2797e-45)
(0.00165402 0.0117936 -4.16659e-45)
(0.00167097 0.0119145 -3.61191e-45)
(0.00168809 0.0120365 -3.5976e-45)
(0.00170538 0.0121597 0)
(0.00172283 0.0122841 -3.56831e-45)
(0.00174045 0.0124097 -5.6698e-46)
(0.00175825 0.0125366 5.72476e-46)
(0.00177622 0.0126647 -3.52258e-45)
(0.00179436 0.012794 -5.83697e-46)
(0.00181269 0.0129247 0)
(0.0018312 0.0130567 -3.47431e-45)
(0.00184989 0.01319 -4.05865e-45)
(0.00186877 0.0133246 -3.44039e-45)
(0.00188784 0.0134606 -3.42278e-45)
(0.00190711 0.0135981 2.78546e-45)
(0.00192657 0.0137369 6.77205e-45)
(0.00194623 0.0138772 6.73364e-45)
(0.00196609 0.0140189 3.34704e-45)
(0.00198616 0.0141621 -3.32669e-45)
(0.00200644 0.0143068 -3.30579e-45)
(0.00202694 0.014453 0)
(0.00204764 0.0146008 0)
(0.00206857 0.0147501 0)
(0.00208971 0.014901 6.78561e-46)
(0.00211109 0.0150535 0)
(0.00213269 0.0152077 -3.8622e-45)
(0.00215451 0.0153635 -3.14478e-45)
(0.00217658 0.015521 3.11955e-45)
(0.00219888 0.0156801 2.37883e-45)
(0.00222142 0.015841 0)
(0.0022442 0.0160037 0)
(0.00226723 0.0161681 -3.0121e-45)
(0.00229051 0.0163343 -2.98365e-45)
(0.00231405 0.0165024 0)
(0.00233784 0.0166723 0)
(0.0023619 0.0168441 -2.89473e-45)
(0.00238622 0.0170178 -3.64247e-45)
(0.00241082 0.0171934 -2.83224e-45)
(0.00243568 0.017371 -2.79986e-45)
(0.00246083 0.0175507 0)
(0.00248626 0.0177324 0)
(0.00251199 0.0179162 0)
(0.002538 0.0181022 0)
(0.00256433 0.0182903 -2.62642e-45)
(0.00259096 0.0184807 -2.58959e-45)
(0.00261791 0.0186734 0)
(0.00264518 0.0188685 0)
(0.00267278 0.019066 -2.47412e-45)
(0.00270073 0.019266 -2.43373e-45)
(0.00272903 0.0194687 9.06429e-46)
(0.0027577 0.0196741 9.14775e-54)
(0.00278675 0.0198824 0)
(0.00281621 0.0200938 0)
(0.00284608 0.0203084 -2.21544e-45)
(0.0028764 0.0205264 -3.14338e-45)
(0.00290719 0.0207482 0)
(0.0029385 0.0209741 0)
(0.00297037 0.0212046 -2.01716e-45)
(0.00300286 0.0214404 -3.02187e-45)
(0.00303605 0.0216821 -2.99679e-45)
(0.00307006 0.0219309 -2.97828e-45)
(0.00310502 0.0221881 -1.79997e-45)
(0.00314105 0.0224557 -3.00209e-45)
(0.00317799 0.0227372 -3.10743e-45)
(0.00321416 0.0230413 -1.83412e-45)
(0.0032451 0.0233913 -2.76192e-46)
(0.00326443 0.0238376 -1.32484e-45)
(0.00326968 0.0244629 0)
(0.00327554 0.025363 -8.71561e-48)
(0.00331089 0.0266054 -1.25908e-45)
(0.00341322 0.0281858 2.30993e-45)
(0.00359799 0.0300168 0)
(0.00387368 0.0319439 6.94129e-44)
(0.00416375 0.0338884 2.08491e-51)
(0.0043093 0.0360927 -1.99603e-43)
(0.0043648 0.0389754 -1.38369e-43)
(0.00456605 0.0424098 0)
(0.00641467 0.0440774 2.10151e-43)
(0.00736129 0.0430471 1.52876e-43)
(0.00604667 0.0414035 2.0223e-43)
(0.0127357 0.0333422 -2.09097e-43)
(-0.00380284 0.0352954 1.1792e-43)
(0.0296604 0.00944523 -1.01753e-42)
(-0.0184104 0.00978908 9.61784e-44)
(0.0249431 -0.00521491 -6.65597e-43)
(-0.0460743 0.0274326 -1.16264e-42)
(0.0328087 0.0403511 -1.66522e-44)
(-0.00909089 0.0306471 3.55014e-43)
(0.0225103 0.0177311 -3.93647e-43)
(-0.00333358 0.00399964 -4.08017e-43)
(8.79276e-05 0.00918007 -1.75918e-43)
(-3.76267e-05 0.0153043 1.08489e-43)
(0.0002792 0.0212788 -1.4439e-44)
(0.00757873 0.017899 6.30388e-44)
(0.00558877 0.00941396 -4.30579e-43)
(-0.0037411 0.0138218 2.29561e-43)
(-0.000873178 0.0269414 9.63966e-44)
(0.0023789 0.0378165 -2.56012e-44)
(0.0028147 0.045875 -2.97428e-43)
(0.0109148 0.0446137 1.26531e-43)
(-0.00054112 0.0473465 4.78556e-43)
(0.0198527 0.0365105 -6.74699e-44)
(-0.00870908 0.039319 -9.62298e-43)
(0.0263416 0.0245317 5.31411e-43)
(-0.0122615 0.024129 6.54625e-43)
(0.0193993 0.0158783 4.51877e-43)
(-0.0131539 0.0171165 -4.41129e-43)
(0.0146057 0.0144841 -3.16148e-43)
(-0.0114636 0.0189064 1.39716e-43)
(0.0157691 0.016046 6.18219e-43)
(-0.00286219 0.00944116 -6.60014e-43)
(0.000254536 0.0167731 8.11394e-52)
(-0.000329165 0.0254526 1.34186e-43)
(0.00159781 0.0318164 -8.22102e-46)
(0.0147775 0.0200634 4.13459e-43)
(0.000226036 0.0114457 9.17522e-43)
(-0.00185257 0.0176029 -1.33102e-51)
(0.00286431 0.02306 -1.51238e-43)
(0.00282668 0.0256323 1.36158e-43)
(0.00305422 0.0285839 1.2086e-43)
(0.00336099 0.031954 -1.04965e-43)
(0.00469806 0.0340802 3.13635e-52)
(0.00431676 0.0357692 1.41858e-43)
(0.00393383 0.0386208 4.8201e-44)
(0.00556252 0.0405181 -1.24841e-44)
(0.006511 0.040084 -3.85165e-46)
(0.00564297 0.0395692 -1.737e-52)
(0.00535801 0.0402253 -6.49213e-44)
(0.0056336 0.0412652 2.27312e-45)
(0.00568192 0.0423066 1.35394e-44)
(0.00622917 0.0428289 7.06559e-45)
(0.00622144 0.0429191 -4.33147e-45)
(0.00628579 0.0429535 3.80955e-44)
(0.00598409 0.0434477 6.96364e-44)
(0.00598155 0.0445096 2.66622e-44)
(0.00615722 0.0457794 1.80224e-44)
(0.00637391 0.0470346 2.28792e-44)
(0.00644638 0.0483432 -4.31837e-46)
(0.00694814 0.049325 -1.50976e-45)
(0.00685526 0.0502464 5.28633e-46)
(0.00705267 0.0512937 -3.75349e-45)
(0.00716014 0.0524675 -1.94319e-45)
(0.00707573 0.054137 0)
(0.00738744 0.0560634 0)
(0.00807614 0.0574009 -1.7027e-52)
(0.00814785 0.0583559 0)
(0.00833501 0.0593196 0)
(0.00830883 0.0605718 0)
(0.0084823 0.0621406 0)
(0.00876414 0.0637634 0)
(0.00914331 0.065123 3.3709e-45)
(0.00964646 0.0656514 0)
(0.010738 0.0641042 0)
(0.0108474 0.0607952 0)
(0.00967264 0.0582789 0)
(0.00819753 0.0589572 0)
(0.0068682 0.0651865 3.91956e-44)
(0.00315163 0.0851307 1.90895e-43)
(-0.00486288 0.133463 -1.99318e-43)
(-0.00687447 0.200691 -7.77867e-43)
(0.0820603 0.175829 1.41231e-42)
(0.0190727 0.128477 -6.48453e-45)
(0.0636252 0.0715942 -2.93483e-43)
(-0.00568899 0.041511 0)
(0.139524 -0.176408 2.36361e-42)
(-0.111895 -0.0855804 0)
(0.0628525 -0.0506052 -6.27718e-43)
(-0.072319 0.0067101 -1.74068e-42)
(0.0346785 0.0900133 -6.89582e-43)
(-0.29547 0.60229 -5.91015e-42)
(0.243345 1.39104 -5.69751e-42)
(0.263123 1.26921 -1.93417e-42)
(-0.000183911 0.00790082 2.60797e-45)
(-0.000243646 0.0152797 0)
(-0.000281769 0.0237967 9.00218e-47)
(-0.000311559 0.033281 0)
(-0.000351997 0.0436244 0)
(-0.000399038 0.0548399 0)
(-0.000437896 0.0668727 0)
(-0.00047075 0.0796295 0)
(-0.000503085 0.0930396 0)
(-0.00053643 0.107046 0)
(-0.00057061 0.121597 0)
(-0.00060541 0.136643 -8.63043e-48)
(-0.00064087 0.152139 -3.94661e-49)
(-0.000676851 0.168039 1.15571e-51)
(-0.000712879 0.184299 7.49366e-49)
(-0.000748421 0.200877 2.78077e-49)
(-0.000783066 0.217728 0)
(-0.000816533 0.234806 0)
(-0.000848626 0.25207 -4.5317e-50)
(-0.000879186 0.269475 -2.43664e-50)
(-0.000908058 0.28698 1.73931e-50)
(-0.000935076 0.304544 4.35289e-51)
(-0.000960064 0.322124 0)
(-0.000982846 0.339683 -1.10206e-51)
(-0.00100325 0.357181 0)
(-0.00102111 0.374581 1.0488e-51)
(-0.00103627 0.391847 1.08743e-51)
(-0.00104863 0.408941 0)
(-0.00105805 0.425831 -1.44203e-52)
(-0.00106445 0.442483 -1.47576e-52)
(-0.00106776 0.458865 0)
(-0.00106791 0.474945 0)
(-0.00106487 0.490696 0)
(-0.00105861 0.506088 0)
(-0.00104913 0.521094 0)
(-0.00103641 0.535689 0)
(-0.00102049 0.549848 0)
(-0.00100138 0.563549 0)
(-0.000979148 0.576768 0)
(-0.000953836 0.589486 0)
(-0.000925518 0.601683 0)
(-0.000894274 0.613341 0)
(-0.000860197 0.624442 0)
(-0.000823391 0.634971 0)
(-0.000783967 0.644912 0)
(-0.000742051 0.654252 0)
(-0.000697772 0.662978 0)
(-0.000651271 0.671078 0)
(-0.000602696 0.678542 0)
(-0.000552202 0.68536 0)
(-0.000499949 0.691523 0)
(-0.000446106 0.697022 0)
(-0.000390843 0.701853 0)
(-0.000334337 0.706007 0)
(-0.00027677 0.70948 0)
(-0.000218323 0.712269 0)
(-0.000159183 0.714368 0)
(-9.95372e-05 0.715776 0)
(-3.95745e-05 0.716491 0)
(2.05162e-05 0.716511 0)
(8.05461e-05 0.715838 0)
(0.000140327 0.71447 0)
(0.000199674 0.712411 0)
(0.000258402 0.709661 0)
(0.00031633 0.706224 0)
(0.000373281 0.702105 0)
(0.00042908 0.697307 0)
(0.000483557 0.691837 0)
(0.000536546 0.685701 0)
(0.000587886 0.678907 0)
(0.00063742 0.671463 0)
(0.000684995 0.663377 0)
(0.000730465 0.654662 0)
(0.000773686 0.645328 0)
(0.00081452 0.635387 0)
(0.000852831 0.624853 0)
(0.00088849 0.613741 0)
(0.000921369 0.602067 0)
(0.000951348 0.589847 0)
(0.000978309 0.577101 0)
(0.00100214 0.563848 0)
(0.00102275 0.550109 0)
(0.00104003 0.535906 0)
(0.00105391 0.521264 0)
(0.00106432 0.506207 0)
(0.00107122 0.490763 0)
(0.00107459 0.474959 0)
(0.00107444 0.458824 0)
(0.00107082 0.442389 0)
(0.00106381 0.425686 0)
(0.00105355 0.408748 0)
(0.00104019 0.391609 0)
(0.00102394 0.374303 0)
(0.00100504 0.356867 0)
(0.000983716 0.339336 0)
(0.000960215 0.321749 0)
(0.000934745 0.304144 0)
(0.000907485 0.286559 0)
(0.000878568 0.269035 0)
(0.000848092 0.251612 0)
(0.000816134 0.234334 3.28162e-52)
(0.000782773 0.217244 3.01641e-52)
(0.000748127 0.200385 4.40421e-51)
(0.000712404 0.183803 3.99388e-51)
(0.000675904 0.167543 2.88295e-50)
(0.000638998 0.15165 5.70357e-49)
(0.000602041 0.136169 0)
(0.000565438 0.121143 9.76414e-48)
(0.000529903 0.106616 -1.78813e-47)
(0.000496443 0.0926315 -3.42703e-48)
(0.000466153 0.0792406 -3.98653e-48)
(0.000438292 0.0664969 -3.08745e-46)
(0.000404677 0.0544698 -3.69753e-47)
(0.000357419 0.0433023 0)
(0.000311723 0.0330784 1.44704e-46)
(0.000291127 0.0236592 0)
(0.000251044 0.015186 0)
(0.000187061 0.00784569 0)
(0.12493 0.729812 0)
(-0.383005 0.607427 -3.81796e-42)
(-0.315378 0.693281 -6.01829e-43)
(-0.251726 0.786352 2.18689e-45)
(-0.211662 0.880716 0)
(-0.179532 0.972485 4.76627e-45)
(-0.151499 1.05738 -8.12653e-45)
(-0.127553 1.13429 0)
(-0.107303 1.20365 5.89799e-45)
(-0.0900846 1.26612 5.04665e-45)
(-0.075268 1.32216 0)
(-0.0623363 1.37207 4.1078e-46)
(-0.0508753 1.41601 3.23093e-46)
(-0.0405563 1.45403 -1.31065e-46)
(-0.031119 1.48616 -1.01036e-46)
(-0.0223557 1.51238 -3.32925e-46)
(-0.0140974 1.53264 -1.38907e-47)
(-0.00620313 1.54693 0)
(0.00145054 1.55523 3.40945e-47)
(0.00897721 1.55754 -8.44431e-48)
(0.0164893 1.55386 -4.26778e-48)
(0.0241055 1.54424 2.20268e-48)
(0.0319585 1.52872 2.02557e-48)
(0.0402043 1.50736 -1.69048e-46)
(0.0490366 1.48022 -1.60969e-47)
(0.0586992 1.44732 3.1689e-45)
(0.0695019 1.40867 0)
(0.081844 1.3642 0)
(0.0962428 1.31375 2.74155e-45)
(0.113366 1.25697 9.52843e-45)
(0.134068 1.19328 -8.73897e-45)
(0.159333 1.1218 -1.21998e-44)
(0.18996 1.04178 0)
(0.226666 0.9541 -1.75992e-45)
(0.275947 0.862673 3.32015e-44)
(0.3612 0.768196 0)
(0.450066 0.667908 -7.25401e-45)
(-0.149237 0.804093 -1.36615e-44)
(0.000548157 0.00868439 -1.68506e-46)
(0.000783663 0.00919586 -5.60437e-45)
(0.000954852 0.00971272 -4.15835e-45)
(0.00108894 0.0103466 2.48354e-45)
(0.00126216 0.0109816 2.34183e-45)
(0.00137125 0.011504 -3.03058e-45)
(0.00145956 0.0119457 2.57218e-47)
(0.00153252 0.0123192 5.37955e-45)
(0.00159585 0.012645 5.33357e-45)
(0.0016519 0.0129366 5.26392e-45)
(0.00170271 0.013203 3.21973e-45)
(0.00174942 0.0134489 -3.73881e-49)
(0.0017927 0.0136769 -8.70112e-46)
(0.00183265 0.0138888 3.45762e-45)
(0.00186959 0.0140867 0)
(0.00190373 0.0142725 -5.05525e-45)
(0.00193529 0.0144481 -4.35304e-45)
(0.00196453 0.0146151 3.71718e-45)
(0.00199174 0.0147751 4.41342e-45)
(0.00201727 0.0149294 0)
(0.00204145 0.015079 6.0011e-46)
(0.00206456 0.0152247 1.16898e-45)
(0.00208682 0.0153672 -5.71204e-46)
(0.00210839 0.0155068 4.5557e-45)
(0.0021294 0.015644 4.58126e-45)
(0.0021499 0.015779 5.42385e-46)
(0.00216993 0.0159123 5.35951e-46)
(0.00218951 0.0160442 5.31027e-46)
(0.00220867 0.016175 0)
(0.00222744 0.0163051 -5.25782e-46)
(0.00224586 0.0164351 0)
(0.00226399 0.0165654 -1.05352e-45)
(0.0022819 0.0166964 -5.29523e-46)
(0.00229965 0.0168285 4.79767e-45)
(0.00231735 0.0169622 -1.29447e-52)
(0.00233506 0.0170978 -5.385e-45)
(0.00235288 0.0172357 -5.4116e-45)
(0.00237087 0.0173761 -4.87535e-45)
(0.00238911 0.0175192 0)
(0.00240766 0.0176652 0)
(0.00242655 0.0178142 0)
(0.00244584 0.0179664 -4.93119e-45)
(0.00246554 0.0181217 -4.94181e-45)
(0.0024857 0.0182803 6.25987e-46)
(0.00250631 0.0184421 -4.95947e-45)
(0.00252739 0.0186072 -4.96666e-45)
(0.00254894 0.0187755 6.60771e-46)
(0.00257098 0.018947 -4.9782e-45)
(0.00259349 0.0191217 -4.9827e-45)
(0.00261647 0.0192996 0)
(0.00263993 0.0194807 -4.98938e-45)
(0.00266385 0.0196649 7.18569e-46)
(0.00268823 0.0198522 4.99323e-45)
(0.00271307 0.0200425 -4.99421e-45)
(0.00273837 0.020236 -4.24204e-45)
(0.00276411 0.0204324 -4.99443e-45)
(0.0027903 0.0206319 -9.98748e-45)
(0.00281694 0.0208343 -4.20666e-45)
(0.00284401 0.0210397 -4.99089e-45)
(0.00287152 0.021248 -4.98874e-45)
(0.00289946 0.0214593 0)
(0.00292783 0.0216734 -4.98304e-45)
(0.00295662 0.0218903 -4.13967e-45)
(0.00298584 0.0221101 0)
(0.00301547 0.0223327 -4.97109e-45)
(0.00304552 0.0225581 -4.09517e-45)
(0.00307598 0.0227862 0)
(0.00310684 0.023017 0)
(0.00313811 0.0232506 0)
(0.00316977 0.0234868 -4.9438e-45)
(0.00320182 0.0237256 -9.87476e-45)
(0.00323426 0.0239671 -4.93069e-45)
(0.00326709 0.0242113 -4.92375e-45)
(0.0033003 0.024458 -4.91655e-45)
(0.00333388 0.0247073 9.6117e-46)
(0.00336784 0.0249592 -4.90142e-45)
(0.00340217 0.0252136 -8.80641e-45)
(0.00343687 0.0254706 -4.88535e-45)
(0.00347194 0.0257301 -4.87698e-45)
(0.00350737 0.0259922 1.00954e-45)
(0.00354316 0.0262569 4.85968e-45)
(0.00357931 0.026524 -4.85074e-45)
(0.00361582 0.0267937 -3.80303e-45)
(0.00365268 0.027066 0)
(0.00368991 0.0273408 0)
(0.00372749 0.0276182 0)
(0.00376543 0.0278982 -4.80343e-45)
(0.00380373 0.0281808 -4.79343e-45)
(0.00384238 0.028466 0)
(0.0038814 0.0287538 -4.77279e-45)
(0.00392078 0.0290442 -3.64451e-45)
(0.00396052 0.0293374 0)
(0.00400062 0.0296332 0)
(0.0040411 0.0299317 0)
(0.00408194 0.030233 0)
(0.00412316 0.030537 0)
(0.00416475 0.0308438 0)
(0.00420672 0.0311535 0)
(0.00424907 0.031466 -3.46601e-45)
(0.00429182 0.0317814 -4.65459e-45)
(0.00433495 0.0320997 0)
(0.00437848 0.032421 -4.62748e-45)
(0.00442241 0.0327453 -4.61341e-45)
(0.00446674 0.0330725 0)
(0.00451149 0.0334029 5.85363e-45)
(0.00455664 0.0337363 4.56922e-45)
(0.00460222 0.0340728 -4.55386e-45)
(0.00464821 0.0344125 1.30496e-45)
(0.00469464 0.0347554 4.52219e-45)
(0.00474149 0.0351015 -4.50588e-45)
(0.00478879 0.035451 -3.14743e-45)
(0.00483652 0.0358037 0)
(0.00488471 0.0361597 0)
(0.00493334 0.0365192 0)
(0.00498243 0.0368821 -4.41977e-45)
(0.00503199 0.0372485 -4.40169e-45)
(0.00508201 0.0376185 0)
(0.0051325 0.037992 -4.36467e-45)
(0.00518348 0.0383691 -2.89852e-45)
(0.00523494 0.0387499 0)
(0.00528689 0.0391345 0)
(0.00533934 0.0395228 -4.28676e-45)
(0.00539229 0.039915 -4.26635e-45)
(0.00544576 0.0403111 -2.72655e-45)
(0.00549975 0.0407112 -4.22416e-45)
(0.00555426 0.0411152 0)
(0.00560931 0.0415234 -2.61539e-45)
(0.00566491 0.0419357 -4.15651e-45)
(0.00572106 0.0423522 4.13261e-45)
(0.00577777 0.042773 8.21599e-45)
(0.00583504 0.0431981 8.16535e-45)
(0.0058929 0.0436276 4.05668e-45)
(0.00595134 0.0440615 -4.03004e-45)
(0.00601038 0.0444999 -4.00276e-45)
(0.00607003 0.044943 -3.97486e-45)
(0.00613029 0.0453906 -2.23343e-45)
(0.00619117 0.045843 -3.91712e-45)
(0.00625268 0.0463001 -3.88726e-45)
(0.00631484 0.0467621 -3.85667e-45)
(0.00637764 0.047229 -3.82531e-45)
(0.00644109 0.0477008 0)
(0.00650521 0.0481777 0)
(0.00657 0.0486596 0)
(0.00663548 0.0491468 0)
(0.00670165 0.0496392 -3.65645e-45)
(0.00676852 0.0501369 -3.62035e-45)
(0.00683609 0.0506401 0)
(0.00690439 0.0511488 0)
(0.00697342 0.051663 0)