/*--------------------------------*- C++ -*----------------------------------*\
| =========                 |                                                 |
| \\      /  F ield         | OpenFOAM: The Open Source CFD Toolbox           |
|  \\    /   O peration     | Version:  2.2.1                                 |
|   \\  /    A nd           | Web:      www.OpenFOAM.org                      |
|    \\/     M anipulation  |                                                 |
\*---------------------------------------------------------------------------*/
FoamFile
{
    version     2.0;
    format      ascii;
    class       volScalarField;
    location    "5e-06";
    object      alpha1;
}
// * * * * * * * * * * * * * * * * * * * * * * * * * * * * * * * * * * * * * //

dimensions      [0 0 0 0 0 0 0];

internalField   nonuniform List<scalar> 
22464
(
-9.46177e-67
-1.92044e-65
-4.11872e-64
-8.91291e-63
-1.95095e-61
-4.18704e-60
-8.58029e-59
-1.61918e-57
-2.69423e-56
-3.61784e-55
-3.39791e-54
-1.35321e-53
1.92353e-59
4.19803e-58
6.93708e-57
3.38682e-52
5.84191e-47
1.28599e-41
2.99708e-36
6.47371e-31
1.16955e-25
1.61283e-20
1.54332e-15
9.69541e-11
5.47388e-07
0.000163268
0.00631686
0.0748675
0.461053
0.926449
0.992797
0.998334
0.999275
0.999589
0.999732
0.999817
0.999852
0.999707
0.999501
0.999502
0.999502
0.999614
0.999576
0.999531
0.999531
0.999755
0.99993
0.999975
0.99999
0.999933
0.999519
0.996407
0.984378
0.976695
0.97735
0.994709
0.999501
0.999879
0.999973
0.999997
1
1
1
1
1
1
1
1
1
1
1
1
1
0.999991
0.999921
0.999431
0.994659
0.979291
0.976143
0.980589
0.997893
0.999773
0.999956
0.999993
0.999996
0.999928
0.999652
0.999523
0.999523
0.999541
0.999711
0.999516
0.999521
0.99968
0.999634
0.976412
0.692238
0.136971
0.028782
0.0116288
0.00530667
0.00421792
0.00304951
0.00215509
0.00150646
0.000978428
0.000586796
0.000302384
0.000105654
8.64966e-06
3.24911e-08
2.05055e-12
7.82819e-18
1.56069e-23
7.19642e-29
1.7056e-34
1.60345e-40
3.17045e-47
3.12901e-55
-1.49758e-80
8.68446e-81
9.6951e-93
1.68084e-115
1.68016e-115
2.01835e-122
3.24737e-130
5.71896e-138
-9.24037e-141
-3.01091e-142
-8.64518e-145
-2.03692e-147
-3.89307e-150
-5.97392e-153
-7.23209e-156
-6.84486e-159
-4.97922e-162
-2.71782e-165
-1.10299e-168
-3.28208e-172
-7.09385e-176
-1.07323e-179
-1.04528e-183
-5.78092e-188
-1.23337e-192
-4.4732e-198
-3.65185e-223
-5.02411e-232
0
0
0
0
0
0
0
0
0
0
0
0
0
0
0
0
0
0
0
0
0
0
0
0
0
0
0
0
0
0
0
0
0
0
0
0
0
0
0
0
0
0
0
0
0
0
0
0
0
0
0
0
0
0
0
0
0
0
0
0
0
0
0
0
0
0
0
0
0
0
0
0
0
0
0
0
0
0
0
0
0
0
0
0
0
0
0
0
0
0
0
0
0
0
0
0
0
0
0
0
0
0
0
0
0
0
0
0
0
0
0
0
0
0
0
0
0
0
0
0
0
0
0
0
0
0
0
0
0
0
0
0
0
0
0
0
0
0
0
0
0
0
0
0
0
0
0
0
0
0
0
0
0
0
0
0
0
0
0
0
0
0
0
0
0
0
0
0
0
0
0
0
0
0
0
0
0
0
0
0
0
0
0
0
0
0
0
0
0
0
0
0
0
0
0
0
0
0
0
0
0
0
0
0
0
0
0
0
0
0
0
0
0
0
0
0
0
0
0
0
0
0
0
0
0
0
0
0
0
0
0
0
0
0
0
0
0
0
0
0
0
0
0
0
0
0
0
0
0
0
0
0
0
0
0
0
0
0
0
0
0
0
0
0
0
0
0
0
0
0
0
0
0
0
0
0
0
-2.35471e-213
-2.03149e-195
-9.10668e-190
-4.97169e-185
-1.00398e-180
-1.12044e-176
-7.96885e-173
-3.99724e-169
-1.46893e-165
-4.01166e-162
-8.16021e-159
-1.25425e-155
-1.49925e-152
-1.40923e-149
-1.05564e-146
-6.42097e-144
-3.2172e-141
-1.34211e-138
-4.65787e-136
2.48639e-152
2.54214e-130
1.51974e-122
7.22402e-115
7.17436e-115
2.06646e-91
3.2488e-81
6.72454e-88
2.25167e-55
2.53701e-47
1.36787e-40
1.49512e-34
6.41453e-29
1.42154e-23
7.28739e-18
1.8723e-12
3.0529e-08
8.40793e-06
0.000104676
0.000300331
0.00058327
0.000973072
0.00149863
0.00214663
0.00303741
0.00420647
0.00528929
0.0115409
0.0286517
0.135054
0.68868
0.975891
0.999626
0.99968
0.999522
0.999517
0.999715
0.99954
0.999522
0.999522
0.999648
0.999926
0.999996
0.999993
0.999956
0.999774
0.997905
0.98065
0.976197
0.979303
0.99465
0.99943
0.999921
0.999991
1
1
1
1
1
1
1
1
1
1
1
1
1
0.999997
0.999973
0.999879
0.999504
0.994745
0.977355
0.976679
0.984336
0.996395
0.999517
0.999932
0.99999
0.999975
0.99993
0.999758
0.999528
0.999528
0.999573
0.999615
0.999505
0.999503
0.999503
0.999699
0.999851
0.999818
0.999734
0.999595
0.999292
0.998405
0.99335
0.933959
0.487323
0.082148
0.0071268
0.000192733
6.91167e-07
1.33437e-10
2.15281e-15
2.25188e-20
1.62427e-25
8.77935e-31
4.08037e-36
1.67915e-41
6.39887e-47
5.90018e-49
1.03354e-53
2.92202e-58
9.87187e-63
3.52122e-63
2.71114e-59
2.53033e-62
1.1094e-65
3.70143e-69
1.73027e-72
1.08193e-76
-7.68953e-72
-2.20101e-71
-2.09508e-71
-1.27281e-71
-5.7165e-72
0
0
0
0
0
0
0
0
0
0
0
0
0
0
0
0
0
0
0
0
0
0
0
0
0
0
0
0
0
0
0
0
0
0
0
0
0
0
0
0
0
0
0
0
0
0
0
0
0
0
0
0
0
0
0
0
0
0
0
0
0
0
0
0
0
0
0
0
0
0
0
0
0
0
0
0
0
0
0
0
0
0
0
0
0
0
0
0
0
0
0
0
0
0
0
0
0
0
0
0
0
0
0
0
0
0
0
0
0
0
0
0
0
0
0
0
0
0
-1.69342e-69
-2.22282e-67
-1.82628e-65
-1.14376e-63
-6.71153e-62
-3.5657e-60
-1.2461e-58
-3.90541e-57
-9.39659e-56
-1.48014e-54
-1.63444e-53
-1.21621e-52
-2.93457e-52
-2.64439e-53
-7.30034e-53
-1.111e-51
-6.8705e-51
-5.62976e-50
-2.55524e-49
-5.30266e-49
4.88126e-49
3.80204e-49
1.85081e-46
2.99738e-52
3.39909e-49
1.17425e-47
5.84712e-48
2.07439e-50
8.39098e-61
1.20353e-64
5.42265e-63
1.49092e-64
1.11084e-69
1.78069e-74
3.26328e-81
3.73435e-87
9.00713e-85
-8.19591e-64
0
0
0
0
0
0
0
0
0
0
0
0
0
0
0
0
0
0
0
0
0
0
0
0
0
0
0
0
0
0
0
0
0
0
0
0
0
0
0
0
0
0
0
0
0
0
0
0
0
0
0
0
0
0
0
0
0
0
0
0
0
0
0
0
0
0
0
0
0
0
0
0
0
0
0
0
0
0
0
0
0
0
0
0
0
0
0
0
0
0
0
0
0
0
0
0
0
0
0
0
0
0
0
0
0
0
0
0
0
0
0
0
0
0
0
0
0
0
0
0
0
0
0
0
0
0
0
0
0
0
0
0
0
0
0
0
0
0
-1.08528e-216
-9.06159e-193
-5.57529e-187
-3.10528e-182
-6.06404e-178
-6.31448e-174
-4.20993e-170
-2.01791e-166
-7.26892e-163
-1.99135e-159
-4.13248e-156
-6.53007e-153
-8.02629e-150
-7.70991e-147
-5.82239e-144
-3.48832e-141
-1.66361e-138
-6.33089e-136
-1.90976e-133
1.10135e-131
6.1005e-124
3.23955e-116
3.11709e-109
3.29559e-98
1.16706e-88
1.38117e-75
1.62123e-88
4.91886e-50
1.80199e-42
3.93208e-36
1.83934e-30
3.05777e-25
7.63169e-22
7.20714e-20
7.21143e-17
2.49417e-12
2.50346e-09
1.98426e-08
6.14566e-08
1.53554e-07
9.47016e-07
6.54233e-06
3.1067e-05
0.000112886
0.000247205
0.000199095
0.000590483
0.000787966
0.00144332
0.0392021
0.412684
0.901667
0.996217
0.999761
0.999886
0.999936
0.999917
0.999909
0.999903
0.999909
0.999937
0.999978
0.999996
0.999996
0.999992
0.99996
0.998144
0.993474
0.991446
0.995027
0.998915
0.999933
0.999999
1
1
1
1
1
1
1
1
1
1
1
1
1
1
1
1
1
0.999816
0.996476
0.992128
0.993966
0.997793
0.999698
0.999987
0.999999
0.999998
0.999995
0.99999
0.999984
0.999977
0.999977
0.999979
0.999981
0.999981
0.999983
0.999988
0.99999
0.999989
0.999981
0.999947
0.999718
0.997465
0.966278
0.632954
0.106972
0.00177492
0.000145747
4.95832e-06
2.67135e-08
1.16606e-11
5.1191e-16
3.88901e-20
3.06014e-24
1.14501e-39
1.14788e-39
1.74622e-41
1.48676e-36
7.95605e-37
6.5531e-38
3.71113e-40
8.41473e-44
2.38538e-48
9.40981e-53
5.46319e-57
4.20923e-61
3.7201e-65
4.48625e-69
7.4947e-73
-1.28474e-69
-8.18903e-69
-8.39368e-69
-4.70183e-69
-2.12604e-62
-5.30281e-61
-1.26563e-59
-2.87378e-58
-6.16776e-57
-1.24207e-55
-2.32739e-54
-4.01889e-53
-6.31839e-52
-8.89465e-51
-1.09596e-49
-1.14586e-48
-9.72603e-48
-6.20645e-47
-2.47951e-46
-2.27905e-47
2.40353e-44
6.46317e-51
6.46312e-51
-1.69549e-44
7.44178e-34
4.62102e-16
1.02327e-11
2.39178e-08
4.48128e-06
0.000128172
0.00137668
0.0930426
0.602026
0.961564
0.997139
0.999691
0.999943
0.999981
0.999989
0.99999
0.999988
0.999983
0.999981
0.999981
0.999979
0.999977
0.999977
0.999984
0.99999
0.999994
0.999998
0.999999
0.999987
0.999701
0.997806
0.993978
0.99212
0.99648
0.999814
1
1
1
1
1
1
1
1
1
1
1
1
1
1
1
1
1
0.999999
0.999933
0.998913
0.995014
0.991414
0.993435
0.998133
0.999959
0.999992
0.999996
0.999996
0.999978
0.999938
0.99991
0.999903
0.999909
0.999917
0.999935
0.999887
0.999763
0.996297
0.902954
0.415843
0.0399403
0.00146922
0.000786677
0.000597808
0.000200508
0.000248613
0.000114859
3.17745e-05
6.75044e-06
9.78292e-07
1.53083e-07
5.96382e-08
1.95312e-08
2.62186e-09
2.56418e-12
7.44902e-17
7.54281e-20
8.28521e-22
3.47314e-25
2.12787e-30
4.67704e-36
2.26734e-42
6.81136e-50
1.76772e-92
3.67035e-75
3.56695e-89
7.19668e-98
4.42331e-116
4.50233e-116
7.77953e-124
1.44192e-131
6.08753e-139
-1.43194e-139
-4.52014e-142
-1.12085e-144
-2.17713e-147
-3.31551e-150
-3.92773e-153
-3.61237e-156
-2.55117e-159
-1.35966e-162
-5.46187e-166
-1.64117e-169
-3.66498e-173
-5.85015e-177
-6.05571e-181
-3.49319e-185
-7.34074e-190
-2.12956e-195
-6.24786e-227
-7.73847e-236
0
0
0
0
0
0
0
0
0
0
0
0
0
0
0
0
0
0
0
0
0
0
0
0
0
0
0
0
0
0
0
0
0
0
0
0
0
0
0
0
0
0
0
0
0
0
0
0
0
0
0
0
0
0
0
0
0
0
0
0
0
0
0
0
0
0
0
0
0
0
0
0
0
0
0
0
0
0
0
0
0
0
0
0
0
0
0
0
0
0
0
0
0
0
0
0
0
0
0
0
0
0
0
0
0
0
0
0
0
0
0
0
0
0
0
0
0
0
0
0
0
0
0
0
0
0
0
0
0
0
0
0
0
0
0
0
0
0
0
0
0
0
0
0
0
0
0
0
0
0
0
0
0
0
0
0
0
0
0
0
0
0
0
0
0
0
0
0
0
0
0
0
0
0
0
0
0
0
0
0
0
0
0
0
0
0
0
0
0
0
0
0
0
0
0
0
0
0
0
0
0
0
0
0
0
0
0
0
0
0
0
0
0
0
0
0
0
0
0
0
0
0
0
0
0
0
0
0
0
0
0
0
0
0
0
0
0
0
0
0
0
0
0
0
0
0
0
0
0
0
0
0
0
-6.25664e-67
-4.89923e-65
-2.86685e-63
-1.45026e-61
-6.92883e-60
-2.13912e-58
-6.0185e-57
-1.33562e-55
-1.95383e-54
-2.09808e-53
-2.14786e-52
-3.26826e-52
-1.61927e-53
7.71431e-70
-7.46249e-52
-4.97474e-51
1.57989e-66
-2.25356e-49
-4.21673e-49
1.12236e-48
2.56075e-46
1.42942e-43
3.9953e-54
6.24297e-49
1.29768e-46
6.72351e-46
1.5107e-47
6.7218e-56
3.94752e-64
2.6704e-62
1.46551e-63
2.88413e-67
1.15857e-73
3.61989e-79
4.13472e-86
1.92137e-82
0
0
0
0
0
0
0
0
0
0
0
0
0
0
0
0
0
0
0
0
0
0
0
0
0
0
0
0
0
0
0
0
0
0
0
0
0
0
0
0
0
0
0
0
0
0
0
0
0
0
0
0
0
0
0
0
0
0
0
0
0
0
0
0
0
0
0
0
0
0
0
0
0
0
0
0
0
0
0
0
0
0
0
0
0
0
0
0
0
0
0
0
0
0
0
0
0
0
0
0
0
0
0
0
0
0
0
0
0
0
0
0
0
0
0
0
3.77311e-78
8.4596e-74
2.32093e-84
1.33504e-80
1.35497e-76
-6.44637e-72
-4.25174e-69
-1.66855e-64
3.82801e-61
-1.40684e-57
-5.67585e-44
-8.15945e-43
-8.04859e-42
-4.6598e-41
-2.74526e-40
2.86572e-39
4.97157e-21
6.96933e-19
4.82391e-16
5.67893e-13
5.67912e-11
1.0159e-09
9.34466e-09
1.08842e-07
4.44254e-06
0.000536647
0.0167009
0.198404
0.766232
0.985574
0.99907
0.999918
0.999991
0.999998
1
1
1
1
1
1
1
1
1
1
1
1
1
0.999995
0.999967
0.999887
0.999746
0.999664
0.999959
0.999999
1
1
1
1
1
1
1
1
1
1
1
1
1
1
1
1
1
0.999997
0.999946
0.999726
0.999449
0.999334
0.999731
0.99998
1
1
0.999999
0.999996
0.999994
0.999993
0.999997
0.999997
0.999997
0.999997
0.999979
0.999069
0.968155
0.704751
0.189494
0.0164076
0.000939312
4.39637e-05
2.48083e-06
2.79835e-07
4.01559e-08
9.41689e-09
2.5176e-09
5.85923e-10
1.09787e-10
2.02901e-11
7.05022e-12
3.08162e-12
7.4046e-13
4.46914e-14
5.71658e-16
3.70899e-17
2.65432e-18
2.8329e-20
1.33353e-23
1.41334e-28
5.53495e-34
5.10885e-40
3.76763e-47
1.14457e-72
2.55594e-72
2.88116e-87
5.92862e-93
3.66841e-103
1.90194e-110
3.83558e-118
7.13786e-126
3.63469e-133
2.60158e-140
-6.0926e-144
-2.70304e-146
-1.35553e-148
-5.89664e-151
-1.88352e-153
-4.28375e-156
-6.92221e-159
-7.90357e-162
-6.27196e-165
-3.37833e-168
-1.21927e-171
-2.81335e-175
-3.76415e-179
-2.48279e-183
-5.123e-188
-7.4164e-194
-2.50595e-230
-2.72579e-239
0
0
0
0
0
0
0
0
0
0
0
0
0
0
0
0
0
0
0
0
0
0
0
0
0
0
0
0
0
0
0
0
0
0
0
0
0
0
0
0
0
0
0
0
0
0
0
0
0
0
0
0
0
0
0
0
0
0
0
0
0
0
0
0
0
0
0
0
0
0
0
0
0
0
0
0
0
0
0
0
0
0
0
0
0
0
0
0
0
0
0
0
0
0
0
0
0
0
0
0
0
0
0
0
0
0
0
0
0
0
0
0
0
0
0
0
0
0
0
0
0
0
0
0
0
0
0
0
0
0
0
0
0
0
0
0
0
0
0
0
0
0
0
0
0
0
0
0
0
0
0
0
0
0
0
0
0
0
0
0
0
0
0
0
0
0
0
0
0
0
0
0
0
0
0
0
0
0
0
0
0
0
0
0
0
0
0
0
0
0
0
0
0
0
0
0
0
0
0
0
0
0
0
0
0
0
0
0
0
0
0
0
0
0
0
0
0
0
0
0
0
0
0
0
0
0
0
0
0
0
0
0
0
0
0
0
0
0
0
0
0
0
0
0
0
0
0
0
0
0
0
0
0
0
0
0
0
0
0
0
0
0
0
0
0
0
0
0
0
0
0
-7.96803e-220
-2.23468e-191
-4.15461e-185
-2.39836e-180
-4.2765e-176
-3.54478e-172
-1.68915e-168
-5.13215e-165
-1.04595e-161
-1.45266e-158
-1.41384e-155
-9.86733e-153
-4.97174e-150
-1.82386e-147
-5.03931e-145
-1.18114e-142
-3.07049e-140
-5.99012e-138
2.88733e-133
5.43985e-126
3.01133e-118
1.4476e-110
3.49079e-103
5.05343e-93
1.06636e-86
9.65949e-73
5.95941e-73
2.72219e-47
4.02433e-40
4.5885e-34
1.20614e-28
1.16166e-23
2.59552e-20
2.51922e-18
3.57439e-17
5.58945e-16
4.48717e-14
7.64071e-13
3.20507e-12
7.2845e-12
2.03972e-11
1.08524e-10
5.79141e-10
2.49177e-09
9.32452e-09
3.95848e-08
2.75113e-07
2.43438e-06
4.30329e-05
0.000924209
0.0161675
0.187421
0.702063
0.967683
0.99905
0.999979
0.999997
0.999997
0.999997
0.999997
0.999993
0.999994
0.999996
0.999999
1
1
0.99998
0.999734
0.99934
0.999453
0.999728
0.999946
0.999997
1
1
1
1
1
1
1
1
1
1
1
1
1
1
1
1
1
0.999999
0.999959
0.999665
0.999745
0.999886
0.999967
0.999995
1
1
1
1
1
1
1
1
1
1
1
1
1
0.999998
0.999991
0.999926
0.999181
0.987532
0.790973
0.217212
0.0187813
0.000605393
4.93789e-06
1.06832e-07
8.71544e-09
9.32945e-10
5.43813e-11
5.8449e-13
5.56673e-16
7.28611e-19
-1.08894e-38
0
3.30158e-56
3.24494e-56
1.53561e-57
1.82249e-60
5.97825e-64
-4.82144e-71
4.23685e-65
2.90954e-66
2.50958e-70
-1.46478e-72
1.89147e-77
6.99316e-77
5.70839e-69
-1.00532e-66
-1.16431e-66
-8.84177e-65
-5.14903e-63
-2.64962e-61
-1.25399e-59
-3.4175e-58
-8.58206e-57
-1.74687e-55
-2.38716e-54
-2.79344e-53
-6.69235e-52
-3.3179e-52
-4.93277e-70
1.82715e-52
-3.61474e-52
-1.23832e-51
9.52859e-49
-1.37402e-49
-2.07974e-49
9.05638e-49
2.4538e-44
8.26254e-42
4.42356e-54
1.94037e-49
3.4702e-46
1.02052e-44
7.38984e-46
9.06872e-51
7.89103e-64
3.11815e-62
5.81737e-63
1.91387e-65
1.11742e-70
2.62139e-76
3.85708e-86
3.9088e-69
1.44358e-64
1.46797e-60
1.12353e-56
1.00433e-52
1.0524e-48
1.0274e-44
7.05422e-41
3.59146e-37
1.59654e-33
6.90516e-30
3.07004e-26
1.45466e-22
2.3365e-19
3.85461e-17
8.67917e-16
6.12528e-15
7.12572e-14
2.76836e-11
2.07521e-09
2.88021e-08
1.26822e-07
3.08482e-07
6.10783e-07
2.6746e-06
0.000508202
0.0400884
0.391321
0.909333
0.995678
0.999728
0.999976
0.999997
1
1
1
1
1
1
1
1
1
1
1
1
1
1
1
1
1
0.999999
1
1
1
1
1
1
1
1
1
1
1
1
1
1
1
1
1
1
1
0.999999
0.999997
0.999994
0.999992
0.999993
0.999999
1
1
1
1
1
1
1
1
1
0.999999
0.999885
0.992537
0.88254
0.434081
0.0703789
0.00724096
0.000432161
2.4965e-05
1.0138e-06
4.0926e-08
1.91898e-09
1.71812e-10
4.30788e-11
1.47168e-11
5.80625e-12
2.42512e-12
9.69777e-13
3.5028e-13
1.11973e-13
3.11885e-14
7.31222e-15
1.29581e-15
1.39366e-16
6.72812e-18
6.46763e-20
3.03632e-23
4.25084e-28
2.24658e-33
2.94626e-39
4.00007e-46
9.41693e-73
2.437e-71
1.39843e-82
1.50807e-90
2.11419e-99
9.11671e-107
2.24946e-114
5.59378e-122
2.75843e-129
1.82114e-136
1.45638e-143
-5.53582e-148
-1.42461e-149
-1.38288e-151
-7.7094e-154
-2.77504e-156
-6.69743e-159
-1.09572e-161
-1.20525e-164
-8.72372e-168
-4.01384e-171
-1.1208e-174
-1.70075e-178
-1.0873e-182
-1.37711e-187
-1.63737e-196
-1.68608e-233
-1.59263e-242
0
0
0
0
0
0
0
0
0
0
0
0
0
0
0
0
0
0
0
0
0
0
0
0
0
0
0
0
0
0
0
0
0
0
0
0
0
0
0
0
0
0
0
0
0
0
0
0
0
0
0
0
0
0
0
0
0
0
0
0
0
0
0
0
0
0
0
0
0
0
0
0
0
0
0
0
0
0
0
0
0
0
0
0
0
0
0
0
0
0
0
0
0
0
0
0
0
0
0
0
0
0
0
0
0
0
0
0
0
0
0
0
0
0
0
0
0
0
0
0
0
0
0
0
0
0
0
0
0
0
0
0
0
0
0
0
0
0
0
0
0
0
0
0
0
0
0
0
0
0
0
0
0
0
0
0
0
0
0
0
0
0
0
0
0
0
0
0
0
0
0
0
0
0
0
0
0
0
0
0
0
0
0
0
0
0
0
0
0
0
0
0
0
0
0
0
0
0
0
0
0
0
0
0
0
0
0
0
0
0
0
0
0
0
0
0
0
0
0
0
0
0
0
0
0
0
0
0
0
0
0
0
0
0
0
0
0
0
0
0
0
0
0
0
0
0
0
0
0
0
0
0
0
0
0
0
0
0
0
0
0
0
0
0
0
0
0
0
0
0
0
0
0
0
0
0
0
0
0
0
0
0
0
0
0
0
0
0
0
0
0
0
0
0
0
0
0
0
0
0
0
0
0
0
0
0
0
0
0
0
0
0
0
0
0
0
0
0
0
0
0
0
0
0
0
0
0
0
0
0
0
0
0
0
0
0
0
0
0
0
0
0
0
0
0
0
0
0
0
0
0
0
0
0
0
0
0
0
0
0
0
0
0
0
0
0
0
0
0
0
0
0
0
0
0
0
0
0
0
0
0
0
0
-9.42088e-223
-4.88598e-194
-1.13238e-184
-1.237e-179
-2.31897e-175
-1.73683e-171
-6.92421e-168
-1.66988e-164
-2.57169e-161
-2.60582e-158
-1.79206e-155
-8.48692e-153
-2.76547e-150
-6.09375e-148
-8.71889e-146
-7.52601e-144
-5.5731e-142
1.39246e-136
2.15678e-129
4.15911e-122
1.7297e-114
6.83308e-107
1.66465e-99
7.33296e-91
2.41351e-82
9.22965e-72
5.36851e-73
2.88635e-46
2.30312e-39
1.8438e-33
3.59541e-28
2.62523e-23
5.89899e-20
6.34853e-18
1.33228e-16
1.24832e-15
7.10377e-15
3.03675e-14
1.0927e-13
3.42944e-13
9.51752e-13
2.38398e-12
5.71631e-12
1.44796e-11
4.23087e-11
1.68399e-10
1.87247e-09
3.98746e-08
9.88982e-07
2.44843e-05
0.000425179
0.0071426
0.0694863
0.431635
0.881543
0.992439
0.999883
0.999999
1
1
1
1
1
1
1
1
1
0.999999
0.999993
0.999993
0.999994
0.999997
0.999999
1
1
1
1
1
1
1
1
1
1
1
1
1
1
1
1
1
1
1
0.999999
0.999999
1
1
1
1
1
1
1
1
1
1
1
1
1
1
1
1
0.999997
0.999978
0.999759
0.996257
0.920789
0.419016
0.0466284
0.00069598
2.70289e-06
5.57413e-07
2.8829e-07
1.19112e-07
2.78998e-08
2.11122e-09
2.99409e-11
8.3108e-14
7.08612e-15
1.04821e-15
4.95611e-17
3.32829e-19
2.46399e-22
4.57799e-26
4.45552e-30
2.46364e-34
2.42943e-38
4.48954e-42
1.11376e-45
2.81651e-49
6.29272e-53
1.88823e-56
3.52168e-60
2.16531e-64
-7.19931e-65
-5.05576e-63
-2.93351e-61
-1.75451e-59
-4.68558e-58
-1.13058e-56
-2.09618e-55
-2.82201e-54
-5.54547e-53
-3.563e-51
-2.95313e-52
2.35707e-51
4.09616e-52
-8.62801e-53
2.90295e-50
1.58947e-45
5.80831e-61
5.04568e-60
5.66349e-56
5.94174e-42
6.99945e-41
4.38245e-47
2.00011e-49
3.70643e-46
5.21878e-44
5.8857e-45
1.34741e-48
5.07912e-64
4.81193e-64
5.92732e-62
1.89769e-64
2.71696e-76
6.4588e-79
0
1.51138e-60
1.88052e-56
1.40996e-52
9.65446e-49
8.07468e-45
6.47952e-41
3.78307e-37
1.64566e-33
5.83526e-30
1.88389e-26
5.95368e-23
1.51983e-19
8.77563e-17
5.57932e-15
5.86346e-14
2.16011e-13
9.04364e-13
1.25052e-10
6.79561e-09
7.36974e-08
2.28162e-07
2.50933e-07
5.70179e-08
6.64077e-08
4.09961e-05
0.00521914
0.119552
0.655647
0.977539
0.998934
0.999931
0.999994
0.999999
1
1
1
1
1
1
1
1
1
1
1
1
1
1
1
1
1
1
1
1
1
1
1
1
1
1
1
1
1
1
1
1
1
1
1
1
1
1
1
1
1
1
1
1
1
1
1
1
1
1
0.999996
0.999312
0.974988
0.749261
0.229979
0.0311853
0.00348207
0.000255014
1.77433e-05
8.91894e-07
2.88238e-08
9.9113e-10
1.40271e-10
9.5161e-11
5.80402e-11
2.81812e-11
1.4094e-11
6.29265e-12
2.39136e-12
8.01961e-13
2.35307e-13
5.75924e-14
1.11494e-14
1.57934e-15
1.4116e-16
5.39046e-18
3.88561e-20
1.40662e-23
2.31867e-28
1.45488e-33
2.34363e-39
4.47297e-46
2.53762e-54
1.26473e-81
1.25414e-81
1.00042e-89
2.88288e-97
4.9726e-105
1.36574e-112
4.85699e-120
2.33961e-127
1.4181e-134
1.08829e-141
8.81007e-149
-1.07481e-150
-1.95391e-152
-1.51234e-154
-7.10825e-157
-2.17064e-159
-4.37993e-162
-5.8004e-165
-4.90127e-168
-2.52208e-171
-7.40325e-175
-1.04307e-178
-5.05351e-183
-1.28145e-188
-3.59633e-199
-1.66638e-236
-1.35561e-245
0
0
0
0
0
0
0
0
0
0
0
0
0
0
0
0
0
0
0
0
0
0
0
0
0
0
0
0
0
0
0
0
0
0
0
0
0
0
0
0
0
0
0
0
0
0
0
0
0
0
0
0
0
0
0
0
0
0
0
0
0
0
0
0
0
0
0
0
0
0
0
0
0
0
0
0
0
0
0
0
0
0
0
0
0
0
0
0
0
0
0
0
0
0
0
0
0
0
0
0
0
0
0
0
0
0
0
0
0
0
0
0
0
0
0
0
0
0
0
0
0
0
0
0
0
0
0
0
0
0
0
0
0
0
0
0
0
0
0
0
0
0
0
0
0
0
0
0
0
0
0
0
0
0
0
0
0
0
0
0
0
0
0
0
0
0
0
0
0
0
0
0
0
0
0
0
0
0
0
0
0
0
0
0
0
0
0
0
0
0
0
0
0
0
0
0
0
0
0
0
0
0
0
0
0
0
0
0
0
0
0
0
0
0
0
0
0
0
0
0
0
0
0
0
0
0
0
0
0
0
0
0
0
0
0
0
0
0
0
0
0
0
0
0
0
0
0
0
0
0
0
0
0
0
0
0
0
0
0
0
0
0
0
0
0
0
0
0
-1.57396e-225
-1.06103e-196
-4.83256e-186
-6.10254e-180
-1.6547e-175
-1.35087e-171
-5.25582e-168
-1.15081e-164
-1.53108e-161
-1.30532e-158
-7.38084e-156
-2.80859e-153
-7.16884e-151
-1.19565e-148
-1.18326e-146
-3.08173e-145
8.13328e-142
1.08812e-134
1.78203e-127
3.58736e-120
1.02894e-112
3.68835e-105
1.92172e-97
7.42572e-90
4.48542e-81
4.5221e-81
1.61265e-54
3.21296e-46
1.81268e-39
1.17525e-33
1.93072e-28
1.19856e-23
3.51054e-20
5.04548e-18
1.34234e-16
1.51397e-15
1.07566e-14
5.5812e-14
2.28766e-13
7.81543e-13
2.3347e-12
6.15732e-12
1.38298e-11
2.76657e-11
5.68525e-11
9.39398e-11
1.37918e-10
9.6254e-10
2.79982e-08
8.71142e-07
1.74261e-05
0.000251507
0.00343574
0.0309056
0.228415
0.747766
0.974749
0.999303
0.999996
1
1
1
1
1
1
1
1
1
1
1
1
1
1
1
1
1
1
1
1
1
1
1
1
1
1
1
1
1
1
1
1
1
1
1
1
1
1
1
1
1
1
1
1
1
1
1
1
1
1
0.999999
0.999995
0.999939
0.999069
0.98068
0.683325
0.133473
0.0061543
5.17244e-05
7.90499e-08
5.24571e-08
2.32895e-07
2.20595e-07
7.36716e-08
7.00537e-09
1.34357e-10
1.01308e-12
2.43406e-13
6.90331e-14
7.04537e-15
1.23121e-16
2.37768e-19
6.73882e-23
6.46998e-27
6.07086e-31
1.04715e-34
2.87104e-38
9.54602e-42
3.08695e-45
8.29352e-49
1.44229e-52
2.01265e-56
-2.06332e-75
0
0
0
0
0
0
0
0
0
0
0
0
0
0
0
0
0
0
0
0
0
0
0
0
0
0
0
0
0
0
0
0
0
0
0
0
0
0
0
0
0
0
0
0
0
0
0
0
0
0
0
0
0
0
0
0
0
0
0
0
0
0
0
0
0
0
0
0
0
0
0
0
0
0
0
0
0
0
0
0
0
0
0
0
0
0
0
0
0
0
0
0
0
0
0
0
0
0
0
0
0
0
0
0
0
0
0
0
0
-5.6516e-73
-1.64758e-59
-4.57087e-58
-1.1791e-56
-2.30635e-55
-4.28173e-54
-2.42539e-52
-2.42379e-50
-1.51394e-52
3.14248e-48
-1.06978e-61
1.00587e-62
6.0436e-47
1.63201e-43
6.55691e-42
1.87548e-38
1.3274e-37
2.91174e-39
1.64139e-40
1.8847e-43
6.35612e-41
1.07336e-42
2.71796e-43
1.47846e-44
2.15989e-47
1.99322e-52
2.56379e-57
1.93819e-60
1.66301e-64
6.66963e-59
4.74698e-55
-8.15866e-60
-2.63388e-58
-9.3579e-57
-2.67662e-55
-1.42792e-53
-1.69641e-51
-1.74923e-49
6.19893e-52
1.35416e-46
6.52955e-44
8.27544e-45
5.21124e-45
1.54681e-42
5.68747e-38
2.02688e-35
9.39062e-35
1.83349e-37
1.96945e-40
1.96423e-41
1.4031e-38
1.11022e-39
7.83363e-42
2.16198e-44
8.23962e-47
1.15386e-50
4.94185e-55
8.73513e-60
6.06799e-54
1.4223e-54
0
0
0
0
0
0
0
0
0
0
0
0
0
0
0
0
0
0
0
0
0
0
0
0
0
0
0
0
0
0
0
0
0
0
0
0
0
0
0
0
0
0
0
0
0
0
0
0
0
0
0
0
0
0
0
0
0
0
0
0
0
0
0
0
0
0
0
0
0
0
0
0
0
0
0
0
0
0
0
0
0
0
0
0
0
0
0
0
0
0
0
0
0
0
0
0
0
0
0
0
0
0
0
0
0
0
0
0
0
0
0
0
0
0
0
0
0
0
0
0
0
0
0
0
0
0
0
0
0
0
0
0
0
0
0
0
0
0
0
0
0
0
0
0
0
0
0
0
0
0
0
0
0
0
0
0
0
0
0
0
0
0
0
0
0
0
0
0
0
0
0
0
0
0
0
0
0
0
0
0
0
0
0
0
0
0
0
0
0
0
0
0
0
0
0
0
0
0
0
0
0
0
0
0
0
0
0
0
0
0
0
0
0
0
0
0
0
0
0
0
0
0
0
0
0
0
0
0
0
0
0
0
0
0
0
0
0
0
0
0
-3.43681e-228
-2.63352e-199
-3.80598e-188
-5.38834e-181
-3.18832e-176
-3.34284e-172
-1.41816e-168
-3.15532e-165
-4.03046e-162
-3.19712e-159
-1.64132e-156
-5.54647e-154
-1.22931e-151
-1.71525e-149
-1.29376e-147
-8.53446e-147
5.28141e-141
5.45005e-134
7.27114e-127
1.50588e-119
2.93371e-112
9.50341e-105
1.52006e-96
4.51992e-92
2.14662e-80
2.35255e-68
9.39146e-56
7.82996e-47
3.19563e-40
1.72648e-34
2.52247e-29
1.40364e-24
7.09031e-21
1.87819e-18
7.09666e-17
9.92046e-16
8.08902e-15
4.64299e-14
2.06169e-13
7.47783e-13
2.3243e-12
6.42413e-12
1.54082e-11
3.4224e-11
9.14589e-11
2.96672e-10
4.35809e-10
4.27276e-10
1.61258e-09
4.29584e-08
1.00849e-06
1.39349e-05
0.000127558
0.00125397
0.0140601
0.117082
0.59938
0.948015
0.99818
0.999986
1
1
1
1
1
1
1
1
1
1
1
1
1
1
1
1
1
1
1
1
1
1
1
1
1
1
1
1
1
1
1
1
1
1
1
1
1
1
1
1
1
1
1
1
1
1
1
1
1
0.999999
0.999986
0.999791
0.99608
0.902157
0.348658
0.0314751
0.000584769
1.55505e-06
1.59122e-09
3.05928e-09
4.87495e-08
7.76493e-08
4.4276e-08
7.78599e-09
2.99229e-10
5.87338e-12
1.77419e-12
5.49575e-13
6.24514e-14
1.28816e-15
3.11492e-18
1.02197e-21
1.23046e-25
1.8372e-29
4.75923e-33
1.79557e-36
7.84531e-40
3.20575e-43
1.02801e-46
2.50779e-51
1.97112e-50
1.11463e-46
7.49833e-43
4.54163e-39
2.12903e-35
7.63815e-32
2.19405e-28
5.51942e-25
1.29617e-21
2.26517e-18
9.70027e-16
5.09001e-14
4.73697e-13
1.58664e-12
5.32671e-12
2.80425e-10
7.59098e-09
4.42647e-08
7.88707e-08
5.11332e-08
3.39562e-09
1.33318e-09
1.10076e-06
0.000466032
0.027456
0.323762
0.888993
0.995496
0.999763
0.999985
0.999999
1
1
1
1
1
1
1
1
1
1
1
1
1
1
1
1
1
1
1
1
1
1
1
1
1
1
1
1
1
1
1
1
1
1
1
1
1
1
1
1
1
1
1
1
1
1
1
1
1
0.999986
0.9982
0.948421
0.601063
0.117843
0.0141592
0.00126673
0.000128991
1.41437e-05
1.03011e-06
4.41146e-08
1.65469e-09
4.31527e-10
4.4022e-10
3.04067e-10
9.38447e-11
3.49557e-11
1.57458e-11
6.58216e-12
2.38698e-12
7.70028e-13
2.13053e-13
4.81844e-14
8.44059e-15
1.04254e-15
7.52921e-17
2.04406e-18
8.00239e-21
1.66893e-24
3.06517e-29
2.16639e-34
4.18303e-40
1.09762e-46
1.75458e-55
5.019e-68
3.73738e-80
2.63321e-96
2.60535e-96
1.28527e-104
3.96208e-112
2.02362e-119
9.76134e-127
7.20288e-134
7.02919e-141
6.61588e-148
-5.5203e-152
-2.08105e-153
-2.07685e-155
-1.15414e-157
-4.03587e-160
-9.09128e-163
-1.31049e-165
-1.16944e-168
-6.03699e-172
-1.63878e-175
-1.87399e-179
-4.65163e-184
-1.05262e-190
-9.03216e-202
-2.23326e-239
-1.5556e-248
0
0
0
0
0
0
0
0
0
0
0
0
0
0
0
0
0
0
0
0
0
0
0
0
0
0
0
0
0
0
0
0
0
0
0
0
0
0
0
0
0
0
0
0
0
0
0
0
0
0
0
0
0
0
0
0
0
0
0
0
0
0
0
0
0
0
0
0
0
0
0
0
0
0
0
0
0
0
0
0
0
0
0
0
0
0
0
0
0
0
0
0
0
0
0
0
0
0
0
0
0
0
0
0
0
0
0
0
0
0
0
0
0
0
0
0
0
0
0
0
0
0
0
0
0
0
0
0
0
0
0
0
0
0
0
0
0
0
0
0
0
0
0
0
0
0
0
0
0
0
0
0
0
0
0
0
0
0
0
0
0
0
0
0
0
0
0
0
0
0
0
0
0
0
0
0
0
0
0
0
0
0
0
0
0
0
0
0
0
0
0
0
0
0
0
0
0
0
0
0
0
0
0
0
0
0
0
0
0
0
0
0
0
0
0
0
0
0
0
0
0
0
0
0
0
0
0
0
0
0
0
0
0
0
0
0
0
0
0
0
0
0
0
0
0
0
0
0
0
0
0
0
0
0
0
0
0
0
0
0
0
0
0
-9.29448e-231
-7.60267e-202
-2.43572e-190
-8.74644e-183
-2.15605e-177
-3.61894e-173
-1.90699e-169
-4.72587e-166
-6.3255e-163
-5.07164e-160
-2.571e-157
-8.35579e-155
-1.73084e-152
-2.16874e-150
-1.29629e-148
6.72943e-148
8.0208e-141
7.80448e-134
7.19828e-127
1.08374e-119
2.07036e-112
3.76015e-105
1.64221e-97
2.46954e-88
2.50244e-88
1.16301e-69
5.98243e-57
5.70373e-48
1.94739e-41
9.53745e-36
1.32106e-30
7.06097e-26
6.78567e-22
3.18752e-19
1.60648e-17
2.91481e-16
2.87001e-15
1.92136e-14
9.79514e-14
4.04742e-13
1.42981e-12
4.54946e-12
1.2479e-11
2.96044e-11
8.01051e-11
3.12594e-10
8.5431e-10
9.22891e-10
9.21396e-10
2.86217e-09
6.7973e-08
1.1687e-06
9.05008e-06
5.9103e-05
0.000501489
0.0065605
0.0679817
0.496209
0.924595
0.9971
0.999976
1
1
1
1
1
1
1
1
1
1
1
1
1
1
1
1
1
1
1
1
1
1
1
1
1
1
1
1
1
1
1
1
1
1
1
1
1
1
1
1
1
1
1
1
1
1
1
1
0.999997
0.999959
0.99926
0.982551
0.676774
0.126878
0.00498776
3.11295e-05
2.33357e-08
1.29124e-10
1.65287e-10
1.62215e-09
5.16103e-09
5.30211e-09
2.33586e-09
2.64326e-10
2.60651e-11
8.52525e-12
2.0661e-12
1.53505e-13
1.89833e-15
2.97416e-18
8.64898e-22
1.39574e-25
3.33606e-29
1.34476e-32
7.66833e-36
4.86452e-39
2.71192e-42
9.4947e-46
-4.77019e-68
1.49616e-49
1.08433e-45
6.71247e-42
2.88356e-38
9.46289e-35
2.40232e-31
5.07387e-28
9.43741e-25
1.62346e-21
2.4135e-18
1.42805e-15
1.25391e-13
1.7953e-12
7.72014e-12
2.4341e-11
2.48959e-10
2.24057e-09
5.16534e-09
5.05745e-09
1.61423e-09
1.69385e-10
1.29926e-10
1.65716e-08
2.42454e-05
0.0041854
0.114369
0.651349
0.979855
0.999159
0.999954
0.999997
1
1
1
1
1
1
1
1
1
1
1
1
1
1
1
1
1
1
1
1
1
1
1
1
1
1
1
1
1
1
1
1
1
1
1
1
1
1
1
1
1
1
1
1
1
1
1
1
0.999976
0.997128
0.925094
0.497829
0.0683969
0.00660989
0.000505488
5.96371e-05
9.15361e-06
1.18971e-06
6.9709e-08
2.93213e-09
9.22593e-10
9.24032e-10
8.65461e-10
3.22795e-10
8.25235e-11
3.03788e-11
1.28382e-11
4.69687e-12
1.48032e-12
4.20257e-13
1.02087e-13
2.01126e-14
3.02029e-15
3.08847e-16
1.72192e-17
3.53883e-19
7.79437e-22
8.56202e-26
1.63258e-30
1.20795e-35
2.57323e-41
8.05035e-48
1.07108e-56
8.79998e-70
3.74816e-88
3.69894e-88
2.31137e-97
5.11149e-105
2.83262e-112
1.48811e-119
9.88885e-127
1.05143e-133
1.09868e-140
1.25568e-147
-7.27731e-154
-2.04116e-154
-2.44734e-156
-1.49991e-158
-5.54981e-161
-1.28404e-163
-1.84458e-166
-1.59002e-169
-7.50529e-173
-1.69014e-176
-1.32109e-180
-9.81359e-186
-6.88581e-193
-2.63906e-204
-3.84444e-242
-2.2828e-251
0
0
0
0
0
0
0
0
0
0
0
0
0
0
0
0
0
0
0
0
0
0
0
0
0
0
0
0
0
0
0
0
0
0
0
0
0
0
0
0
0
0
0
0
0
0
0
0
0
0
0
0
0
0
0
0
0
0
0
0
0
0
0
0
0
0
0
0
0
0
0
0
0
0
0
0
0
0
0
0
0
0
0
0
0
0
0
0
0
0
0
0
0
0
0
0
0
0
0
0
0
0
0
0
0
0
0
0
0
0
0
0
0
0
0
0
0
0
0
0
0
0
0
0
0
0
0
0
0
0
0
-1.22197e-64
-5.79095e-57
-5.92504e-55
-8.34041e-53
-1.22888e-50
-1.17171e-48
4.78617e-51
6.36549e-46
1.55198e-41
4.34888e-41
4.25179e-44
1.44372e-41
1.71261e-35
1.62349e-33
5.05835e-33
3.75669e-36
3.57464e-40
4.59983e-40
3.04228e-37
5.25722e-38
9.60526e-41
2.48347e-44
1.42435e-46
6.234e-50
3.16815e-54
7.76292e-60
0
0
0
0
0
0
0
0
0
0
0
0
0
0
0
0
0
0
0
0
0
0
0
0
0
0
0
0
0
0
0
0
0
0
0
0
0
0
0
0
0
0
0
0
0
0
0
0
0
0
0
0
0
0
0
0
0
0
0
0
0
0
0
0
0
0
0
0
0
0
0
0
0
0
0
0
0
0
0
0
0
0
0
0
0
0
0
0
0
0
0
0
0
0
0
0
0
0
0
0
0
0
0
0
0
0
0
0
0
0
0
0
0
0
0
0
0
0
0
0
0
0
0
0
0
0
0
0
0
0
0
0
0
0
0
0
0
0
0
0
0
0
0
0
0
0
0
0
0
0
0
0
0
0
0
0
0
0
0
0
0
0
0
0
0
0
0
0
0
0
0
0
0
0
0
0
0
0
0
0
0
0
0
0
0
0
0
0
0
0
0
0
0
0
0
0
0
0
0
0
0
0
0
0
0
0
0
0
0
0
0
0
0
0
0
0
0
0
0
0
0
0
0
0
0
0
0
0
0
0
0
0
0
0
0
0
0
0
0
0
0
0
0
0
0
0
0
0
0
0
0
0
0
0
0
0
0
0
0
0
0
0
0
0
0
0
0
0
0
0
0
0
0
0
0
0
0
0
0
0
0
0
0
0
0
0
0
0
0
0
0
0
0
0
0
0
0
0
0
0
0
0
0
0
0
0
0
0
0
0
0
0
0
0
0
0
0
0
0
0
0
0
0
0
0
0
0
0
0
0
0
0
0
0
0
0
0
0
-2.99091e-233
-2.53451e-204
-1.52489e-192
-1.05999e-184
-6.74013e-179
-2.01349e-174
-1.4444e-170
-4.36042e-167
-6.6171e-164
-5.79145e-161
-3.10101e-158
-1.03683e-155
-2.15238e-153
-2.58865e-151
-1.06852e-149
4.00481e-148
3.55774e-141
3.32502e-134
3.34238e-127
3.65351e-120
5.81471e-113
1.24741e-105
2.09992e-98
3.7666e-90
1.16759e-81
5.51667e-73
5.6004e-73
6.79574e-50
2.63161e-43
1.35701e-37
1.95995e-32
1.10956e-27
2.71153e-23
2.4199e-20
1.56594e-18
4.01688e-17
4.98636e-16
3.99375e-15
2.36875e-14
1.11977e-13
4.50761e-13
1.66346e-12
5.49796e-12
1.551e-11
4.53986e-11
2.06234e-10
8.53407e-10
1.12516e-09
1.04315e-09
9.17302e-10
4.42959e-09
8.24091e-08
8.45179e-07
4.84301e-06
2.63082e-05
0.000223705
0.00323713
0.0498638
0.454066
0.915711
0.996756
0.999974
1
1
1
1
1
1
1
1
1
1
1
1
1
1
1
1
1
1
1
1
1
1
1
1
1
1
1
1
1
1
1
1
1
1
1
1
1
1
1
1
1
1
1
1
1
1
1
0.999993
0.999876
0.997436
0.926899
0.395359
0.0376857
0.00071868
1.96364e-06
6.15071e-10
1.29078e-10
1.62048e-10
2.27972e-10
2.88531e-10
3.28978e-10
3.10458e-10
1.95474e-10
8.50929e-11
2.33902e-11
2.583e-12
7.38379e-14
3.90694e-16
4.02816e-19
1.44562e-22
4.17007e-26
1.82541e-29
1.22375e-32
1.02406e-35
7.85003e-39
3.83957e-42
7.66469e-47
5.44639e-46
1.42675e-41
7.19859e-38
1.89733e-34
3.17436e-31
3.93942e-28
4.15585e-25
4.27454e-22
4.39725e-19
3.13925e-16
6.06106e-14
2.22189e-12
2.10619e-11
7.98226e-11
1.88003e-10
3.00807e-10
3.21181e-10
2.86648e-10
2.33864e-10
1.6711e-10
1.29823e-10
4.4353e-10
1.47215e-06
0.000592051
0.0334125
0.371214
0.917535
0.997095
0.999862
0.999993
1
1
1
1
1
1
1
1
1
1
1
1
1
1
1
1
1
1
1
1
1
1
1
1
1
1
1
1
1
1
1
1
1
1
1
1
1
1
1
1
1
1
1
1
1
1
1
0.999974
0.996783
0.916199
0.455556
0.0501825
0.00326557
0.000225527
2.65369e-05
4.8943e-06
8.57394e-07
8.41422e-08
4.52731e-09
9.18954e-10
1.03852e-09
1.12917e-09
8.65686e-10
2.14896e-10
4.69871e-11
1.60346e-11
5.70292e-12
1.73023e-12
4.69893e-13
1.17042e-13
2.48543e-14
4.21029e-15
5.28576e-16
4.28823e-17
1.69782e-18
2.66614e-20
3.20015e-23
1.37237e-27
2.4622e-32
1.73432e-37
3.51587e-43
9.72359e-50
9.18003e-73
9.04209e-73
1.99083e-81
5.74181e-90
2.90329e-98
1.72766e-105
8.02356e-113
5.06279e-120
4.6404e-127
4.52493e-134
4.97922e-141
5.87669e-148
2.52531e-155
-1.96253e-155
-2.66852e-157
-1.6799e-159
-6.12846e-162
-1.35804e-164
-1.80843e-167
-1.39124e-170