/*--------------------------------*- C++ -*----------------------------------*\
| =========                 |                                                 |
| \\      /  F ield         | OpenFOAM: The Open Source CFD Toolbox           |
|  \\    /   O peration     | Version:  2.2.1                                 |
|   \\  /    A nd           | Web:      www.OpenFOAM.org                      |
|    \\/     M anipulation  |                                                 |
\*---------------------------------------------------------------------------*/
FoamFile
{
    version     2.0;
    format      ascii;
    class       volScalarField;
    location    "5e-06";
    object      p_rgh;
}
// * * * * * * * * * * * * * * * * * * * * * * * * * * * * * * * * * * * * * //

dimensions      [1 -1 -2 0 0 0 0];

internalField   nonuniform List<scalar> 
22464
(
0.608422
1.22517
2.23471
3.01773
3.64457
4.18851
4.68396
5.14456
5.57865
5.99002
6.38339
6.76291
7.13469
7.50562
7.88583
8.29074
8.74617
9.29699
10.0266
11.1002
12.8641
16.0851
22.3885
34.7096
59.478
111.074
-36.8229
-1466.56
-6041.71
-12191
-11032.2
-8797.13
-7681.8
-7191.81
-6976.72
-6905.24
-6895.25
-6867.69
-6802.47
-6847.84
-6888.05
-6965.9
-6966.2
-6944.42
-6937.99
-7042.95
-7095.99
-7112.08
-7126.9
-7163.56
-7163.82
-6629.1
-3263.17
1149.1
512.93
-6097.22
-6975.7
-6956.92
-6924.73
-6896.39
-6874.32
-6858.02
-6845.88
-6836.94
-6830.89
-6827.71
-6827.57
-6830.71
-6837.55
-6848.69
-6865.1
-6888.4
-6921.29
-6967.44
-7028.71
-7062.81
-6310.56
-1060.34
1274.68
-1471.17
-6998.56
-7197.9
-7147.38
-7072.23
-6964.54
-6785.67
-6438.4
-5987.61
-5439.23
-4685.35
-3701.74
-2166.01
-22.9548
3341.85
9505.76
18599.6
12290.5
163.664
135.019
259.571
119.396
119.247
107.57
71.0805
48.4452
27.8935
11.5483
-1.18618
-9.73915
-11.5319
-11.5736
-11.6428
-11.6604
-11.6888
-11.7269
-11.7691
-11.8119
-11.8527
-11.8892
-11.9198
-11.9442
-11.962
-11.9731
-11.9768
-11.9727
-11.9606
-11.9406
-11.9132
-11.8793
-11.8397
-11.7951
-11.7457
-11.6918
-11.6336
-11.5714
-11.5054
-11.4363
-11.3645
-11.2906
-11.2147
-11.1369
-11.0575
-10.9766
-10.8943
-10.8105
-10.7248
-10.6374
-10.5491
-10.4606
-10.3727
-10.2854
-10.1984
-10.1114
-10.0245
-9.93859
-9.85431
-9.77192
-9.69102
-9.61088
-9.5311
-9.45188
-9.37398
-9.29808
-9.22428
-9.15194
-9.07998
-9.00746
-8.93409
-8.86037
-8.78722
-8.71539
-8.64505
-8.57564
-8.50621
-8.43591
-8.3645
-8.2924
-8.22047
-8.14957
-8.08011
-8.01194
-7.94442
-7.87673
-7.80813
-7.73813
-7.66655
-7.59342
-7.51893
-7.44336
-7.36705
-7.29034
-7.21344
-7.13634
-7.05876
-6.98022
-6.90021
-6.81841
-6.73485
-6.65
-6.56464
-6.47965
-6.39571
-6.31307
-6.23148
-6.15027
-6.0686
-5.98572
-5.90126
-5.81536
-5.72862
-5.64194
-5.55628
-5.47241
-5.39065
-5.31081
-5.23221
-5.15382
-5.07444
-4.99299
-4.90867
-4.8211
-4.73036
-4.637
-4.54187
-4.44601
-4.3505
-4.25631
-4.16418
-4.07459
-3.98772
-3.90345
-3.82146
-3.74126
-3.66227
-3.58389
-3.50557
-3.42683
-3.34733
-3.26681
-3.18515
-3.10233
-3.01842
-2.93355
-2.8479
-2.76169
-2.67513
-2.58845
-2.50182
-2.41542
-2.32938
-2.24382
-2.15884
-2.07449
-1.99083
-1.9079
-1.8257
-1.74424
-1.66352
-1.58354
-1.50428
-1.42572
-1.34786
-1.27066
-1.19412
-1.11821
-1.04292
-0.968241
-0.894155
-0.820662
-0.74776
-0.675455
-0.603769
-0.532728
-0.462488
-0.393361
-0.325698
-0.25917
-0.19397
-0.130284
-0.0668448
-0.009248
0.0421862
0.0805781
0.104426
0.121767
0.121202
0.106508
0.0855531
0.0485349
-0.000511565
-0.0592286
-0.119249
-0.180996
-0.244139
-0.308811
-0.374895
-0.44212
-0.51025
-0.579067
-0.648412
-0.718215
-0.788448
-0.859096
-0.930143
-1.00157
-1.07334
-1.14541
-1.21775
-1.29032
-1.36307
-1.43599
-1.50906
-1.58227
-1.65563
-1.72916
-1.8029
-1.87691
-1.95124
-2.02598
-2.10123
-2.17709
-2.25366
-2.33106
-2.40937
-2.48868
-2.56905
-2.65052
-2.73309
-2.81675
-2.90144
-2.98711
-3.07367
-3.16104
-3.24912
-3.33783
-3.42707
-3.51679
-3.60693
-3.69741
-3.7882
-3.87923
-3.97042
-4.06168
-4.15292
-4.24403
-4.33494
-4.42558
-4.51594
-4.60604
-4.69596
-4.78582
-4.87575
-4.96587
-5.05625
-5.14692
-5.23778
-5.3287
-5.41944
-5.50976
-5.59944
-5.68829
-5.77626
-5.86342
-5.94994
-6.03611
-6.12224
-6.20863
-6.29548
-6.38289
-6.47078
-6.55897
-6.64715
-6.73493
-6.82193
-6.90777
-6.9921
-7.07466
-7.15527
-7.23383
-7.31034
-7.3849
-7.4577
-7.52904
-7.59924
-7.66861
-7.73744
-7.80589
-7.87402
-7.94176
-8.00898
-8.07554
-8.14138
-8.20658
-8.27142
-8.33632
-8.40176
-8.46815
-8.53572
-8.60446
-8.67413
-8.74437
-8.8149
-8.88561
-8.95666
-9.02833
-9.10091
-9.17452
-9.24905
-9.32428
-9.40003
-9.47632
-9.55334
-9.63131
-9.71025
-9.78985
-9.86964
-9.94924
-10.0287
-10.1085
-10.1892
-10.2712
-10.3543
-10.4377
-10.5208
-10.6034
-10.6857
-10.768
-10.8502
-10.9315
-11.0113
-11.0891
-11.1649
-11.239
-11.311
-11.3801
-11.4457
-11.5072
-11.5646
-11.6178
-11.6663
-11.7094
-11.7466
-11.7779
-11.8032
-11.8221
-11.8337
-11.8375
-11.8335
-11.822
-11.8034
-11.7781
-11.747
-11.7115
-11.6731
-11.6331
-11.5937
-11.5581
-11.5318
-11.5157
-11.4488
-11.4063
-9.64938
-1.15401
11.5086
27.759
48.1816
70.8088
107.113
119.338
118.753
257.923
135.721
154.255
12175.9
18567.6
9535.69
3352.31
-23.2513
-2167.83
-3700.99
-4683.13
-5437.37
-5986.09
-6435.5
-6784.15
-6963.68
-7071.25
-7146.4
-7196.74
-6999.13
-1490.99
1257.25
-1052.27
-6305.44
-7060.28
-7026.53
-6965.14
-6918.82
-6885.73
-6862.2
-6845.54
-6834.13
-6827
-6823.55
-6823.38
-6826.22
-6831.91
-6840.47
-6852.19
-6868.04
-6889.65
-6917.56
-6949.41
-6968.28
-6097.71
515.455
1167.41
-3236.14
-6614.35
-7150.08
-7148.61
-7110.36
-7093.77
-7075.63
-7021.59
-6911.96
-6915.38
-6933.57
-6931.25
-6850.08
-6804.54
-6753.39
-6807.89
-6830.63
-6831.65
-6890.96
-7090.12
-7554.31
-8627.82
-10841.4
-12256.2
-6158.37
-1609.53
-63.1913
114.065
60.7716
34.9911
22.3387
15.9021
12.6427
10.8811
9.82605
9.11866
8.58729
8.15303
7.76895
7.40697
7.04743
6.68308
6.31195
5.92608
5.52477
5.10252
4.65357
4.16541
3.62477
2.99921
2.21876
1.21238
0.593327
0.084707
0.0551078
0.0339703
0.0159904
0.000846791
-0.0131178
-0.023854
-0.0310881
-0.0360819
-0.0399849
-0.0434595
-0.0468122
-0.0501662
-0.0535628
-0.0569951
-0.0604407
-0.0638772
-0.0672877
-0.0706593
-0.0739799
-0.0772377
-0.0804206
-0.0835167
-0.0865153
-0.0894067
-0.0921833
-0.0948389
-0.0973696
-0.0997729
-0.102048
-0.104193
-0.106212
-0.108104
-0.109874
-0.111524
-0.113058
-0.114481
-0.115798
-0.117015
-0.118135
-0.119164
-0.120107
-0.12097
-0.121756
-0.12247
-0.123115
-0.123696
-0.124217
-0.124679
-0.125085
-0.12544
-0.125744
-0.126
-0.12621
-0.126376
-0.126498
-0.126579
-0.12662
-0.126621
-0.126583
-0.126507
-0.126393
-0.126239
-0.126045
-0.125811
-0.125534
-0.125214
-0.124849
-0.124435
-0.123971
-0.123455
-0.122882
-0.12225
-0.121556
-0.120796
-0.119965
-0.119059
-0.118075
-0.117008
-0.115852
-0.114604
-0.113257
-0.111809
-0.110254
-0.108588
-0.106807
-0.104906
-0.102882
-0.100732
-0.0984543
-0.096047
-0.0935105
-0.0908466
-0.0880591
-0.0851541
-0.0821396
-0.079026
-0.075825
-0.07255
-0.0692143
-0.0658304
-0.0624087
-0.0589578
-0.0554838
-0.051986
-0.0484685
-0.0449601
-0.0416465
-0.0388887
-0.0368595
-0.0349553
-0.0313936
-0.0241575
-0.0127075
0.00233503
0.02463
0.0502823
0.0827212
0.406834
0.311301
0.28267
0.279703
0.290596
0.310412
0.334921
0.361467
0.389649
0.419688
0.451419
0.483902
0.515597
0.545005
0.571112
0.59318
0.610493
0.62238
0.628367
0.628293
0.62229
0.610593
0.593479
0.571201
0.544728
0.51606
0.486899
0.457668
0.428276
0.398607
0.368723
0.340419
0.317535
0.303818
0.300753
0.308802
0.33745
0.428446
0.0503488
0.0307714
0.000229203
-0.0381267
-0.0923967
-0.148248
-0.206665
-0.266824
-0.329045
-0.393032
-0.458513
-0.525192
-0.5928
-0.661126
-0.730072
-0.799581
-0.869612
-0.940123
-1.01107
-1.08242
-1.15412
-1.22612
-1.29839
-1.37087
-1.44355
-1.51639
-1.5894
-1.66257
-1.73593
-1.8095
-1.88334
-1.95752
-2.03212
-2.10723
-2.18296
-2.25941
-2.3367
-2.41493
-2.49417
-2.5745
-2.65593
-2.73849
-2.82215
-2.90687
-2.99256
-3.07916
-3.16657
-3.25469
-3.34344
-3.43274
-3.52251
-3.6127
-3.70325
-3.79411
-3.88522
-3.9765
-4.06785
-4.15918
-4.25037
-4.34133
-4.43201
-4.52237
-4.61247
-4.70238
-4.79223
-4.88216
-4.97231
-5.06276
-5.15353
-5.24452
-5.33558
-5.42646
-5.5169
-5.60665
-5.69554
-5.78351
-5.87063
-5.95711
-6.04325
-6.12938
-6.21581
-6.30276
-6.39031
-6.47837
-6.56674
-6.65509
-6.74303
-6.83016
-6.91609
-7.0005
-7.08312
-7.16377
-7.24235
-7.31886
-7.39342
-7.46622
-7.53756
-7.60778
-7.67721
-7.74613
-7.81471
-7.88298
-7.95085
-8.01818
-8.08479
-8.15064
-8.21582
-8.28066
-8.34562
-8.41122
-8.47788
-8.54579
-8.61489
-8.68485
-8.75528
-8.82588
-8.89662
-8.96771
-9.03952
-9.11234
-9.18623
-9.26101
-9.33638
-9.41218
-9.48849
-9.56561
-9.64377
-9.72293
-9.80265
-9.88233
-9.96164
-10.0408
-10.1204
-10.2011
-10.2833
-10.3663
-10.4495
-10.5323
-10.6145
-10.6967
-10.779
-10.8612
-10.9424
-11.022
-11.0996
-11.1757
-11.2504
-11.3233
-11.3935
-11.4604
-11.5237
-11.5837
-11.6401
-11.6926
-11.7404
-11.7835
-11.8224
-11.857
-11.887
-11.9116
-11.931
-11.9456
-11.9562
-11.9635
-11.9687
-11.9741
-11.982
-11.9954
-12.0183
-12.057
-12.1214
-12.2254
-12.3877
-12.6671
-13.3478
-14.8523
-16.1389
-17.1129
-18.0296
-18.6716
-20.2973
-24.3678
-16.7829
-28.9516
-50.4106
-41.3852
-160.953
-140.031
-3078.56
704.789
1479.14
-552.95
-2301.78
-3574.59
-4590.06
-5361.87
-5923.61
-6325.96
-6608.94
-6802.98
-6923.14
-7000.42
-7051.02
-7070.6
-6647.77
-6304.87
-5656.55
-6269.39
-6982.75
-6989.18
-6941.33
-6901.34
-6871.96
-6851.07
-6836.45
-6826.76
-6821.17
-6819.13
-6820.24
-6824.25
-6830.98
-6840.37
-6852.54
-6867.88
-6887.26
-6912.2
-6945.5
-6992.27
-6998.88
-6368.36
-6104.26
-6188.81
-6913.4
-7151.22
-7138.21
-7115.68
-7104.63
-7097.65
-7090.15
-7079.42
-7067.81
-7052.07
-7034.51
-7012.03
-6988.14
-6962.81
-6942.77
-6928.1
-6939.12
-6995.88
-7129.04
-7438.61
-7978.18
-8389.13
-7346.69
-1457.04
-174.214
16.7005
41.301
37.2927
27.8066
21.0198
16.7042
13.9248
12.0767
10.7986
9.86697
9.14884
8.56904
8.07199
7.61904
7.18344
6.75695
6.33359
5.90465
5.46459
5.00445
4.51409
3.98037
3.39051
2.71758
1.91445
0.976731
0.987927
1.92905
2.73298
3.40196
3.98977
4.52852
5.03235
5.50995
5.96599
6.40645
6.83796
7.26983
7.71317
8.18324
8.70256
9.30455
10.0403
10.9915
12.2909
14.1555
16.9424
21.2488
27.993
37.5217
42.6249
20.8401
-161.112
-1283.41
-7194.57
-8505.74
-8115.24
-7552.89
-7223.16
-7076.58
-7009.92
-6990.15
-6997.91
-7011.66
-7031.67
-7050.78
-7069.15
-7083.09
-7095.61
-7104.47
-7112.65
-7117.99
-7123.02
-7132.33
-7153.34
-7165.24
-6928.62
-6202.84
-6112.86
-6378.78
-7007.1
-7000.51
-6953.22
-6919.44
-6894.03
-6874.19
-6858.39
-6845.81
-6836.04
-6828.95
-6824.61
-6823.17
-6824.91
-6830.21
-6839.63
-6854
-6874.68
-6903.88
-6943.72
-6991.41
-6984.83
-6270.16
-5652.57
-6301.78
-6646.91
-7071.68
-7052.09
-7001.42
-6924.12
-6804.02
-6610.14
-6327.2
-5924.89
-5363.12
-4591.1
-3574.44
-2299.03
-545.761
1483.94
708.843
-3099.51
-145.637
-162.28
-41.7407
-50.1385
-29.184
-16.6953
-24.4091
-20.3844
-18.7535
-18.1396
-17.2332
-16.267
-14.9846
-13.4801
-12.7962
-12.5166
-12.3554
-12.2531
-12.1909
-12.1546
-12.1343
-12.1231
-12.1161
-12.1101
-12.1037
-12.0958
-12.0852
-12.0705
-12.0507
-12.0253
-11.994
-11.9573
-11.9157
-11.8701
-11.8209
-11.7679
-11.7111
-11.6506
-11.5865
-11.5191
-11.4489
-11.3763
-11.3018
-11.2256
-11.1476
-11.0681
-10.9871
-10.9046
-10.8204
-10.7346
-10.6475
-10.5596
-10.4718
-10.3843
-10.2973
-10.2103
-10.1234
-10.0367
-9.95089
-9.86647
-9.78368
-9.7023
-9.62193
-9.54234
-9.46367
-9.3863
-9.31053
-9.23629
-9.16311
-9.09033
-9.01744
-8.94429
-8.87115
-8.7985
-8.72674
-8.65592
-8.5857
-8.51549
-8.44479
-8.37341
-8.30161
-8.22997
-8.15914
-8.08951
-8.02104
-7.95329
-7.88554
-7.81704
-7.7472
-7.67567
-7.6024
-7.5276
-7.45168
-7.37512
-7.29835
-7.22157
-7.14468
-7.06725
-6.98871
-6.90849
-6.82631
-6.74233
-6.65714
-6.5716
-6.48664
-6.40289
-6.3205
-6.23912
-6.15799
-6.07622
-5.99309
-5.90828
-5.82201
-5.73497
-5.64811
-5.56245
-5.47872
-5.39722
-5.31768
-5.23937
-5.16118
-5.08189
-5.00038
-4.91588
-4.82802
-4.73695
-4.64323
-4.54777
-4.45164
-4.35593
-4.26163
-4.16948
-4.07994
-3.99316
-3.90903
-3.82719
-3.74713
-3.66826
-3.58998
-3.51172
-3.43302
-3.35352
-3.27298
-3.19128
-3.10841
-3.02443
-2.9395
-2.8538
-2.76754
-2.68096
-2.59426
-2.50763
-2.42125
-2.33524
-2.24974
-2.16482
-2.08055
-1.997
-1.91418
-1.83211
-1.75081
-1.67026
-1.59048
-1.51144
-1.43313
-1.35555
-1.27867
-1.20249
-1.12698
-1.05214
-0.977962
-0.904448
-0.831604
-0.759457
-0.688061
-0.617442
-0.547608
-0.478916
-0.411664
-0.346039
-0.281725
-0.21847
-0.157844
-0.0976702
-0.0508795
-0.00728258
0.0256065
0.0490968
0.00416266
-0.0214391
-0.03674
-0.0450527
-0.0580358
-0.0711969
-0.0805607
-0.0872125
-0.0927291
-0.0978173
-0.102696
-0.107441
-0.112106
-0.116671
-0.121107
-0.1254
-0.129555
-0.133584
-0.137495
-0.141292
-0.144975
-0.148537
-0.151974
-0.15528
-0.15845
-0.161479
-0.164367
-0.167114
-0.169718
-0.17218
-0.174502
-0.176686
-0.178735
-0.18065
-0.182437
-0.1841
-0.185643
-0.187072
-0.188392
-0.189607
-0.190724
-0.191747
-0.192681
-0.19353
-0.194296
-0.194986
-0.1956
-0.196142
-0.196616
-0.197022
-0.197364
-0.197645
-0.197864
-0.198026
-0.198131
-0.198183
-0.198182
-0.198131
-0.198032
-0.197884
-0.197687
-0.197441
-0.197146
-0.196799
-0.196401
-0.195948
-0.195438
-0.19487
-0.19424
-0.193544
-0.192782
-0.191948
-0.191041
-0.190056
-0.188989
-0.187836
-0.186595
-0.185261
-0.183829
-0.182295
-0.180657
-0.17891
-0.17705
-0.175073
-0.172976
-0.170754
-0.168401
-0.165914
-0.163287
-0.160518
-0.157602
-0.154539
-0.15133
-0.147979
-0.144491
-0.140874
-0.137138
-0.133292
-0.129342
-0.125288
-0.121122
-0.116824
-0.112372
-0.107737
-0.10288
-0.0978913
-0.092924
-0.0880964
-0.0832107
-0.077726
-0.0690446
-0.0527476
-0.0378882
-0.0390007
-0.0237067
0.00383658
0.822999
0.7788
0.78206
0.80486
0.837476
0.874589
0.913023
0.951961
0.991804
1.03253
1.07291
1.11117
1.14598
1.17669
1.20275
1.22333
1.23739
1.24425
1.24384
1.2365
1.22267
1.20248
1.17625
1.14522
1.11123
1.0756
1.03855
0.999841
0.958868
0.916728
0.87715
0.843632
0.817582
0.800086
0.797243
0.836586
-0.0213989
-0.0518333
-0.0698479
-0.0732939
-0.0941026
-0.116069
-0.128752
-0.137107
-0.144277
-0.15095
-0.157239
-0.163258
-0.169116
-0.174764
-0.18014
-0.185235
-0.190081
-0.194716
-0.199168
-0.203455
-0.207583
-0.211553
-0.215365
-0.219017
-0.222507
-0.225837
-0.229006
-0.232017
-0.234873
-0.237574
-0.240124
-0.242525
-0.24478
-0.246891
-0.248864
-0.250702
-0.252411
-0.253996
-0.255462
-0.256815
-0.258059
-0.2592
-0.260243
-0.26119
-0.262047
-0.262815
-0.263498
-0.264099
-0.264619
-0.265061
-0.265427
-0.265719
-0.265939
-0.266089
-0.266172
-0.26619
-0.266147
-0.266045
-0.265885
-0.265669
-0.265395
-0.265064
-0.264676
-0.264228
-0.26372
-0.263149
-0.262513
-0.261808
-0.261033
-0.260184
-0.259258
-0.258253
-0.257166
-0.255993
-0.254731
-0.253376
-0.251925
-0.250375
-0.248721
-0.246962
-0.245094
-0.243113
-0.241018
-0.238803
-0.236465
-0.233998
-0.231396
-0.228652
-0.225758
-0.222708
-0.219494
-0.21611
-0.212554
-0.208825
-0.204926
-0.200863
-0.196643
-0.19227
-0.187746
-0.183059
-0.178185
-0.173095
-0.167754
-0.162056
-0.156039
-0.149841
-0.143547
-0.136997
-0.13037
-0.124701
-0.118561
-0.0930312
-0.0527086
-0.0792028
-0.0568814
-0.0187063
1.71039
2.50448
3.19484
3.81428
4.3874
4.92807
5.44403
5.94141
6.42626
6.90691
7.39432
7.90203
8.44842
9.06016
9.77372
10.6413
11.7397
13.1808
15.1252
17.8036
21.5714
26.8583
33.0975
36.6842
43.3599
40.6115
-581.109
-3296.31
-7893.5
-7542.36
-7398.49
-7230.77
-7132.94
-7084.17
-7064.74
-7062.88
-7069.38
-7079.96
-7091.53
-7102.3
-7111.17
-7118.11
-7123.06
-7126.49
-7128.27
-7129.36
-7132.06
-7139.42
-7148.47
-7124.65
-6972.57
-6790.21
-6803.52
-6921.38
-6945.43
-6930.71
-6909.68
-6889.93
-6872.24
-6856.8
-6843.7
-6832.97
-6824.64
-6818.85
-6815.76
-6815.61
-6818.75
-6825.64
-6836.93
-6853.43
-6876.06
-6906.35
-6946.83
-6971.3
-6941.69
-6733.99
-6686.27
-6781.01
-6890.34
-6908.93
-6875.22
-6803.02
-6685.36
-6503.54
-6231.36
-5839.1
-5281.38
-4530.82
-3612.61
-2528.4
-1515.38
-3544.62
-2061.57
-30.3536
-33.1029
-34.5443
-24.7418
-32.8575
-29.5713
-24.2551
-22.8201
-21.0257
-19.5037
-18.4016
-17.4343
-16.4649
-15.4411
-14.4645
-13.7604
-13.3093
-13.0104
-12.8019
-12.6531
-12.5451
-12.465
-12.4033
-12.3536
-12.3114
-12.2744
-12.2405
-12.2077
-12.1739
-12.1375
-12.0979
-12.0547
-12.0081
-11.9585
-11.9063
-11.8519
-11.7948
-11.7347
-11.6713
-11.6048
-11.5355
-11.4637
-11.39
-11.3146
-11.2378
-11.1595
-11.0796
-10.9981
-10.915
-10.8305
-10.7446
-10.6579
-10.5707
-10.4835
-10.3964
-10.3095
-10.2228
-10.1361
-10.0498
-9.964
-9.87923
-9.79584
-9.71399
-9.63366
-9.55464
-9.47672
-9.39972
-9.32358
-9.2483
-9.1739
-9.10037
-9.02754
-8.95513
-8.88289
-8.81065
-8.73846
-8.66653
-8.59502
-8.52394
-8.45309
-8.38219
-8.31106
-8.23986
-8.16898
-8.09889
-8.02986
-7.96175
-7.89396
-7.82568
-7.75607
-7.6846
-7.61113
-7.53598
-7.45973
-7.38302
-7.30634
-7.22979
-7.15312
-7.07575
-6.99702
-6.91643
-6.83381
-6.74947
-6.66413
-6.57869
-6.494
-6.41057
-6.32844
-6.24713
-6.16586
-6.08378
-6.00025
-5.91507
-5.82854
-5.74141
-5.65464
-5.56919
-5.48575
-5.40453
-5.3252
-5.24697
-5.16873
-5.08927
-5.00751
-4.9227
-4.83453
-4.74318
-4.64924
-4.55363
-4.45742
-4.3617
-4.26744
-4.17536
-4.08592
-3.99924
-3.91518
-3.83341
-3.75338
-3.67453
-3.59624
-3.51795
-3.4392
-3.35964
-3.27904
-3.19728
-3.11434
-3.03031
-2.94533
-2.85959
-2.77332
-2.68673
-2.60004
-2.51344
-2.42709
-2.34114
-2.2557
-2.17087
-2.0867
-2.00326
-1.92057
-1.83865
-1.75751
-1.67715
-1.59757
-1.51876
-1.44072
-1.36343
-1.28688
-1.21106
-1.13597
-1.06159
-0.987922
-0.914978
-0.842778
-0.771401
-0.700934
-0.631217
-0.5625
-0.495182
-0.429514
-0.365729
-0.303934
-0.244275
-0.18803
-0.115768
-0.09435
-0.0542921
-0.0468991
-0.0607685
-0.126284
-0.178145
-0.232221
-0.289192
-0.349039
-0.411044
-0.474909
-0.54027
-0.60677
-0.674126
-0.742228
-0.811006
-0.880405
-0.950365
-1.02083
-1.09175
-1.16307
-1.23473
-1.3067
-1.37891
-1.45134
-1.52396
-1.59676
-1.66973
-1.7429
-1.8163
-1.88997
-1.96399
-2.03843
-2.11339
-2.18898
-2.26531
-2.3425
-2.42063
-2.4998
-2.58007
-2.66148
-2.74402
-2.82768
-2.91241
-2.99813
-3.08477
-3.17222
-3.26039
-3.3492
-3.43855
-3.52839
-3.61865
-3.70929
-3.80025
-3.89146
-3.98285
-4.07432
-4.16575
-4.25702
-4.34805
-4.43877
-4.52915
-4.61924
-4.70913
-4.79897
-4.88891
-4.97908
-5.06959
-5.16045
-5.25155
-5.34273
-5.43373
-5.52426
-5.61407
-5.70298
-5.79094
-5.87804
-5.9645
-6.05064
-6.13681
-6.22332
-6.31039
-6.39807
-6.48627
-6.57475
-6.66319
-6.75118
-6.83833
-6.92427
-7.00866
-7.09127
-7.1719
-7.25047
-7.32699
-7.40156
-7.47439
-7.54579
-7.61608
-7.68561
-7.75464
-7.82334
-7.89172
-7.95969
-8.02707
-8.09371
-8.15957
-8.22478
-8.28972
-8.35488
-8.4208
-8.48788
-8.55626
-8.62577
-8.69604
-8.76662
-8.83727
-8.90803
-8.97923
-9.05127
-9.12442
-9.19867
-9.27372
-9.34923
-9.42507
-9.50145
-9.57871
-9.65711
-9.73645
-9.81617
-9.89561
-9.97454
-10.0534
-10.1329
-10.2137
-10.296
-10.379
-10.4619
-10.5443
-10.6263
-10.7085
-10.791
-10.8732
-10.9543
-11.0336
-11.1114
-11.1881
-11.2637
-11.3378
-11.4093
-11.4779
-11.5437
-11.6068
-11.667
-11.7238
-11.7768
-11.8267
-11.8739
-11.9185
-11.9601
-11.9985
-12.0342
-12.0681
-12.1012
-12.1348
-12.1709
-12.2125
-12.2631
-12.3265
-12.4087
-12.5187
-12.6694
-12.8794
-13.179
-13.63
-14.334
-15.3123
-16.3401
-17.3158
-18.2924
-19.4066
-20.9411
-22.7595
-24.2184
-29.498
-32.8307
-24.6078
-34.2432
-33.5776
-29.935
-2044.6
-3590.94
-1542.31
-2532.15
-3611.92
-4529.13
-5279.62
-5837.6
-6230.04
-6502.4
-6684.33
-6802.03
-6874.25
-6907.96
-6889.46
-6780.44
-6685.68
-6732.22
-6939.84
-6969.24
-6944.49
-6903.89
-6873.47
-6850.67
-6833.96
-6822.44
-6815.28
-6811.86
-6811.7
-6814.47
-6819.93
-6827.89
-6838.25
-6850.94
-6865.93
-6883.16
-6902.43
-6922.93
-6937.08
-6912.43
-6793.65
-6779.23
-6959.97
-7111.64
-7134.6
-7124.28
-7115.44
-7111.06
-7108.09
-7104.21
-7098.4
-7090.79
-7080.83
-7068.53
-7053.88
-7037.93
-7022.38
-7010.29
-7005.89
-7018.24
-7059.14
-7147.71
-7307.56
-7450.36
-7804.14
-3504.83
-627.629
34.1275
42.3863
35.4798
32.4758
26.5167
21.3028
17.5608
14.9019
12.9789
11.5582
10.4759
9.62592
8.93487
8.34461
7.81203
7.30935
6.8274
6.35669
5.88771
5.40932
4.91144
4.38212
3.8101
3.18458
2.48931
1.70061
1.59471
1.54081
1.51525
1.50643
1.50685
1.51227
1.5215
1.53459
1.55115
1.56963
1.58826
1.60616
1.62295
1.63807
1.65025
1.65826
1.66161
1.66061
1.65579
1.64728
1.63493
1.61896
1.60084
1.58269
1.56571
1.54975
1.53372
1.51775
1.50479
1.49927
1.50419
1.52069
1.55132
1.60307
2.36096
3.05133
3.68568
4.27881
4.84387
5.38714
5.91564
6.43498
6.95338
7.48147
8.03227
8.62497
9.28469
10.0436
10.9441
12.0426
13.4105
15.1314
17.2897
19.9387
22.9727
25.8081
27.0701
24.0557
-3.94013
-80.3656
-704.803
-6192.02
-7275.93
-7213.23
-7170.16
-7137.63
-7118.92
-7110.93
-7111.34
-7116.06
-7122.65
-7129.29
-7134.98
-7139.03
-7141.36
-7141.89
-7140.81
-7138.11
-7134.12
-7129.44
-7123.95
-7111.4
-7072.75
-6991.36
-6908.9
-6885.16
-6915.1
-6924.77
-6916.4
-6900.94
-6884.08
-6867.65
-6852.43
-6838.85
-6827.17
-6817.59
-6810.23
-6805.27
-6802.94
-6803.5
-6807.25
-6814.55
-6825.71
-6840.99
-6860.98
-6885.22
-6897.98
-6863.59
-6783.67
-6752.94
-6774.65
-6816.95
-6826.62
-6803.47
-6748.56
-6655.31
-6509.2
-6288.5
-5961.68
-5478.1
-4780.93
-4018.46
-4368.84
-4568.73
-598.757
-24.8118
-39.4777
-33.7688
-33.1181
-29.9204
-31.044
-28.172
-24.9574
-23.1462
-21.3667
-19.9689
-18.8092
-17.7846
-16.827
-15.9047
-15.0612
-14.3934
-13.8975
-13.5317
-13.2578
-13.0495
-12.8882
-12.761
-12.6582
-12.573
-12.5005
-12.4372
-12.3806
-12.3278
-12.2766
-12.2249
-12.1719
-12.1176
-12.0617
-12.0046
-11.9461
-11.8863
-11.8247
-11.7606
-11.6938
-11.6244
-11.5526
-11.479
-11.4039
-11.3275
-11.2499
-11.1711
-11.0907
-11.0087
-10.9252
-10.8404
-10.7546
-10.6682
-10.5814
-10.4945
-10.4076
-10.3208
-10.2344
-10.1481
-10.062
-9.97631
-9.89139
-9.80779
-9.72592
-9.6458
-9.56707
-9.4892
-9.41179
-9.33482
-9.2586
-9.18358
-9.11
-9.03765
-8.96589
-8.89397
-8.8214
-8.74823
-8.67502
-8.60247
-8.53096
-8.46035
-8.39007
-8.31954
-8.24853
-8.17739
-8.10675
-8.03719
-7.9688
-7.90104
-7.83294
-7.76347
-7.69195
-7.61828
-7.54288
-7.46649
-7.38986
-7.3134
-7.23708
-7.16048
-7.08294
-7.00384
-6.92279
-6.83984
-6.75542
-6.67028
-6.58525
-6.50103
-6.41796
-6.33592
-6.25442
-6.17275
-6.09018
-6.00622
-5.92081
-5.8343
-5.7474
-5.66101
-5.57598
-5.49288
-5.41183
-5.33247
-5.25401
-5.1754
-5.09549
-5.01329
-4.92812
-4.83971
-4.74826
-4.65435
-4.55886
-4.46285
-4.36735
-4.27329
-4.18138
-4.09203
-4.00539
-3.92131
-3.83946
-3.75932
-3.68032
-3.60188
-3.52344
-3.44456
-3.36487
-3.28416
-3.20232
-3.11932
-3.03525
-2.95026
-2.86452
-2.77827
-2.69171
-2.60507
-2.51852
-2.43224
-2.34636
-2.26101
-2.17626
-2.09221
-2.00888
-1.92632
-1.84454
-1.76356
-1.68338
-1.60399
-1.5254
-1.4476
-1.37058
-1.29434
-1.21886
-1.14414
-1.07018
-0.99697
-0.924524
-0.852916
-0.782307
-0.712514
-0.643425
-0.575488
-0.509056
-0.444475
-0.381961
-0.32223
-0.270442
-0.234265
-0.099338
-0.153094
-0.0939706
-0.116271
-0.0945708
-0.139802
-0.171051
-0.180038
-0.187899
-0.196478
-0.20467
-0.212304
-0.219549
-0.226646
-0.233436
-0.239773
-0.245665
-0.251187
-0.256416
-0.261402
-0.266176
-0.270752
-0.275133
-0.279324
-0.283325
-0.287139
-0.290771
-0.294225
-0.297505
-0.300615
-0.303558
-0.306337
-0.308956
-0.311418
-0.313725
-0.315883
-0.317897
-0.319771
-0.321511
-0.323122
-0.324609
-0.325979
-0.327236
-0.328385
-0.32943
-0.330373
-0.331219
-0.33197
-0.332627
-0.333193
-0.333669
-0.334058
-0.334362
-0.334582
-0.334721
-0.334782
-0.334768
-0.334683
-0.33453
-0.334311
-0.334027
-0.333677
-0.333262
-0.332781
-0.332232
-0.331615
-0.330926
-0.330163
-0.329323
-0.328403
-0.327401
-0.326314
-0.325139
-0.323873
-0.322514
-0.321057
-0.3195
-0.31784
-0.316074
-0.3142
-0.312216
-0.310118
-0.307906
-0.305575
-0.303123
-0.300545
-0.297835
-0.294986
-0.291987
-0.28883
-0.285501
-0.28199
-0.278286
-0.274382
-0.270272
-0.265958
-0.261443
-0.256733
-0.251831
-0.246736
-0.24143
-0.235891
-0.230095
-0.223887
-0.217156
-0.209965
-0.202462
-0.194792
-0.186774
-0.178873
-0.175462
-0.192042
-0.209976
-0.0222907
-0.192185
-0.106715
-0.0474041
-0.174882
-0.207904
-0.253821
-0.308007
-0.36611
-0.426635
-0.489321
-0.553685
-0.619366
-0.685935
-0.753309
-0.82143
-0.890248
-0.959701
-1.02973
-1.10026
-1.17124
-1.24261
-1.31431
-1.38628
-1.4585
-1.53092
-1.60353
-1.67633
-1.74933
-1.82256
-1.89607
-1.96993
-2.04422
-2.11904
-2.1945
-2.27071
-2.34779
-2.42583
-2.50493
-2.58514
-2.6665
-2.74903
-2.83268
-2.91742
-3.00317
-3.08983
-3.17733
-3.26555
-3.35441
-3.44383
-3.53375
-3.6241
-3.71485
-3.80592
-3.89726
-3.98878
-4.08037
-4.17192
-4.26329
-4.35439
-4.44515
-4.53556
-4.62565
-4.71553
-4.80535
-4.89528
-4.98546
-5.076
-5.16691
-5.25808
-5.34933
-5.4404
-5.53099
-5.62083
-5.70976
-5.79773
-5.88483
-5.97131
-6.0575
-6.14375
-6.23035
-6.31752
-6.40529
-6.49354
-6.58203
-6.67042
-6.75832
-6.84534
-6.93113
-7.01539
-7.09788
-7.17844
-7.25699
-7.33352
-7.40815
-7.48108
-7.55259
-7.62301
-7.69266
-7.7618
-7.83058
-7.89901
-7.967
-8.03439
-8.10104
-8.16693
-8.23227
-8.29745
-8.36298
-8.42938
-8.49701
-8.56592
-8.63587
-8.70639
-8.77709
-8.84778
-8.91861
-8.98999
-9.06235
-9.13592
-9.21055
-9.28587
-9.36152
-9.43744
-9.51392
-9.59137
-9.66996
-9.74939
-9.82897
-9.90807
-9.98662
-10.0652
-10.1448
-10.2258
-10.3081
-10.391
-10.4735
-10.5556
-10.6376
-10.72
-10.8027
-10.8849
-10.9658
-11.0451
-11.1233
-11.2009
-11.2778
-11.3532
-11.4264
-11.4971
-11.5657
-11.6323
-11.6963
-11.7575
-11.816
-11.8726
-11.928
-11.9821
-12.0348
-12.086
-12.1369
-12.1883
-12.2414
-12.298
-12.3609
-12.4335
-12.5194
-12.6232
-12.7518
-12.9146
-13.1247
-13.4
-13.7665
-14.2627
-14.9312
-15.7766
-16.7021
-17.6637
-18.6944
-19.8627
-21.2705
-23.0678
-24.9003
-28.0997
-30.9717
-29.8004
-32.9765
-33.7123
-39.0827
-24.0646
-587.892
-4548.37
-4369.13
-4012.76
-4776.45
-5475.25
-5959.88
-6287.22
-6508.16
-6654.36
-6747.62
-6802.53
-6825.65
-6815.98
-6773.69
-6751.76
-6781.97
-6861.56
-6895.71
-6882.86
-6858.51
-6838.38
-6822.93
-6811.57
-6804.04
-6800.03
-6799.2
-6801.23
-6805.86
-6812.89
-6822.12
-6833.41
-6846.58
-6861.38
-6877.36
-6893.72
-6908.63
-6916.39
-6906.02
-6875.21
-6897.99
-6979.34
-7059.91
-7097.6
-7108.95
-7113.04
-7116.14
-7118.35
-7119.07
-7117.93
-7114.91
-7109.77
-7102.55
-7093.27
-7082.61
-7071.54
-7061.86
-7056.08
-7058.41
-7071.74
-7099.73
-7142.69
-7188.09
-6393.46
-838.889
-71.9947
-5.55578
23.1115
26.4321
25.385
22.6688
19.685
17.0592
14.9211
13.2225
11.8732
10.7893
9.90674
9.16909
8.52807
7.94542
7.39895
6.87919
6.37499
5.87341
5.36347
4.83439
4.27665
3.67999
3.03919
2.3526
2.2701
2.21272
2.17213
2.14282
2.12067
2.10452
2.09435
2.08942
2.088
2.08896
2.09199
2.09678
2.10202
2.10609
2.10798
2.10783
2.10637
2.1039
2.10004
2.09421
2.08684
2.07988
2.07568
2.0753
2.07794
2.08267
2.09063
2.10508
2.12931
2.16497
2.21175
2.27142
-0.0425702
2.94458
3.58512
4.18786
4.76951
5.33189
5.88278
6.42759
6.97367
7.52926
8.10645
8.72266
9.39859
10.1585
11.0321
12.0544
13.2613
14.6796
16.306
18.0692
19.7768
21.0565
20.7202
15.8643
3.99741
7.42534
-127.37
-2222.61
-8061.69
-6941.14
-7063.55
-7119.47
-7135.59
-7143.88
-7151.11
-7157.4
-7162.51
-7166.02
-7167.78
-7167.63
-7165.65
-7161.85
-7156.35
-7149.09
-7140.08
-7129.17
-7115.27
-7094.45
-7059.51
-7005.79
-6952.26
-6924.51
-6925.05
-6920.49
-6909.3
-6894.34
-6878.06
-6861.77
-6846.21
-6831.87
-6819.08
-6808.04
-6798.92
-6791.89
-6787.13
-6784.81
-6785.12
-6788.2
-6794.06
-6802.54
-6813.05
-6823.18
-6825.32
-6807.17
-6768.56
-6751.32
-6757.3
-6776.82
-6783.35
-6774.06
-6746.9
-6697.24
-6614.97
-6481.84
-6265.69
-5909.26
-5310.24
-5221.54
-2768.7
-265.79
-50.8764
-21.573
-30.1541
-33.5946
-33.9085
-30.1412
-29.526
-26.9842
-24.5939
-23.0071
-21.4255
-20.1153
-18.996
-17.9987
-17.0864
-16.2395
-15.4765
-14.8464
-14.3454
-13.9505
-13.6387
-13.3908
-13.191
-13.0275
-12.8917
-12.7772
-12.6791
-12.5934
-12.5168
-12.4462
-12.379
-12.3132
-12.2479
-12.183
-12.1184
-12.054
-11.9893
-11.924
-11.8573
-11.7887
-11.7179
-11.645
-11.5705
-11.4947
-11.418
-11.3405
-11.2622
-11.1828
-11.1021
-11.0198
-10.936
-10.851
-10.7652
-10.6787
-10.592
-10.5051
-10.4183
-10.3317
-10.2453
-10.1592
-10.0735
-9.98834
-9.90403
-9.82094
-9.73921
-9.65872
-9.57915
-9.50023
-9.42195
-9.34458
-9.26849
-9.19392
-9.12076
-9.04847
-8.97631
-8.90361
-8.83011
-8.75608
-8.68225
-8.60938
-8.53783
-8.46736
-8.39725
-8.32681
-8.25575
-8.18442
-8.11353
-8.04374
-7.97517
-7.90729
-7.83908
-7.76949
-7.69783
-7.62408
-7.54872
-7.47253
-7.39618
-7.31994
-7.24367
-7.16686
-7.0889
-7.00931
-6.92791
-6.84488
-6.76072
-6.6761
-6.5917
-6.50799
-6.42513
-6.34296
-6.26103
-6.17878
-6.09566
-6.01138
-5.92595
-5.83973
-5.75334
-5.66755
-5.58304
-5.50023
-5.41918
-5.33954
-5.26057
-5.18131
-5.10075
-5.01801
-4.93248
-4.84394
-4.75257
-4.65891
-4.5638
-4.4682
-4.37309
-4.27936
-4.18766
-4.09841
-4.01174
-3.92754
-3.84548
-3.76509
-3.68582
-3.6071
-3.52841
-3.4493
-3.36943
-3.28859
-3.20665
-3.12359
-3.0395
-2.95452
-2.86882
-2.78261
-2.69612
-2.60955
-2.52309
-2.4369
-2.35111
-2.26586
-2.18122
-2.09728
-2.01407
-1.93165
-1.85001
-1.76918
-1.68917
-1.60997
-1.53158
-1.45401
-1.37725
-1.3013
-1.22614
-1.15177
-1.0782
-1.0054
-0.933442
-0.862494
-0.792564
-0.723206
-0.654589
-0.587146
-0.521385
-0.457736
-0.396044
-0.337311
-0.290271
-0.286646
-0.0912475
-0.235737
-0.233879
-0.230337
-0.271375
-0.32421
-0.381161
-0.440648
-0.502503
-0.566104
-0.631194
-0.697062
-0.76375
-0.831232
-0.899481
-0.96844
-1.03804
-1.10822
-1.1789
-1.25001
-1.32148
-1.39325
-1.46528
-1.53753
-1.60997
-1.68261
-1.75544
-1.82852
-1.90187
-1.97558
-2.04972
-2.1244
-2.19973
-2.27582
-2.35278
-2.43073
-2.50975
-2.5899
-2.67121
-2.75371
-2.83735
-2.92209
-3.00786
-3.09456
-3.18209
-3.27037
-3.3593
-3.4488
-3.53881
-3.62927
-3.72014
-3.81135
-3.90284
-3.99451
-4.08624
-4.17791
-4.2694
-4.36058
-4.4514
-4.54183
-4.63192
-4.72179
-4.81159
-4.9015
-4.99167
-5.08221
-5.17313
-5.26433
-5.35562
-5.44671
-5.53733
-5.62719
-5.71614
-5.80413
-5.89127
-5.97782
-6.06409
-6.15044
-6.23715
-6.3244
-6.4122
-6.50043
-6.58882
-6.67704
-6.76471
-6.85147
-6.93699
-7.02101
-7.10331
-7.18375
-7.26226
-7.33883
-7.41357
-7.48665
-7.55833
-7.62891
-7.69869
-7.76792
-7.83674
-7.90517
-7.97313