/*--------------------------------*- C++ -*----------------------------------*\
| =========                 |                                                 |
| \\      /  F ield         | OpenFOAM: The Open Source CFD Toolbox           |
|  \\    /   O peration     | Version:  2.2.1                                 |
|   \\  /    A nd           | Web:      www.OpenFOAM.org                      |
|    \\/     M anipulation  |                                                 |
\*---------------------------------------------------------------------------*/
FoamFile
{
    version     2.0;
    format      ascii;
    class       surfaceScalarField;
    location    "5e-06";
    object      phi;
}
// * * * * * * * * * * * * * * * * * * * * * * * * * * * * * * * * * * * * * //

dimensions      [0 3 -1 0 0 0 0];

internalField   nonuniform List<scalar> 
44563
(
-3.53237e-14
-2.08112e-15
-3.38142e-14
-1.5096e-15
-3.2608e-14
-1.2062e-15
-3.16082e-14
-9.99775e-16
-3.07264e-14
-8.81812e-16
-2.9919e-14
-8.07319e-16
-2.91626e-14
-7.56436e-16
-2.84565e-14
-7.06061e-16
-2.7814e-14
-6.42463e-16
-2.72884e-14
-5.25671e-16
-2.69434e-14
-3.44938e-16
-2.68449e-14
-9.85398e-17
-2.70411e-14
1.96238e-16
-2.75832e-14
5.42078e-16
-2.85364e-14
9.5327e-16
-3.00077e-14
1.47126e-15
-3.21781e-14
2.17041e-15
-3.53601e-14
3.18192e-15
-4.00979e-14
4.73783e-15
-4.73583e-14
7.26041e-15
-5.88968e-14
1.15385e-14
-7.7933e-14
1.90362e-14
-1.10088e-13
3.21552e-14
-1.63623e-13
5.3535e-14
-2.48491e-13
8.4868e-14
-3.61219e-13
1.12728e-13
-4.55724e-13
9.45043e-14
-2.32888e-13
-2.22835e-13
-2.15323e-13
-1.75655e-14
-2.15994e-13
6.71498e-16
-1.65814e-13
-5.018e-14
-1.19876e-13
-4.59388e-14
-8.63409e-14
-3.35347e-14
-6.35197e-14
-2.28212e-14
-4.79763e-14
-1.55433e-14
-3.77648e-14
-1.02115e-14
-3.10149e-14
-6.74994e-15
-2.62622e-14
-4.7527e-15
-2.32702e-14
-2.99203e-15
-2.12534e-14
-2.01679e-15
-2.00157e-14
-1.23763e-15
-1.91452e-14
-8.70511e-16
-1.86098e-14
-5.35408e-16
-1.80947e-14
-5.15108e-16
-1.75862e-14
-5.0851e-16
-1.68348e-14
-7.51364e-16
-1.59034e-14
-9.31479e-16
-1.47311e-14
-1.17228e-15
-1.31305e-14
-1.6006e-15
-1.04863e-14
-2.64417e-15
-7.27262e-15
-3.21368e-15
-4.6662e-15
-2.60642e-15
-6.07823e-15
1.41202e-15
-1.21305e-14
6.05225e-15
-2.81936e-14
1.60632e-14
-2.41853e-14
-4.00832e-15
-2.13876e-14
-2.79773e-15
-1.9468e-14
-1.91961e-15
-1.82128e-14
-1.25522e-15
-1.74483e-14
-7.64505e-16
-1.69765e-14
-4.71712e-16
-1.66747e-14
-3.01825e-16
-1.64773e-14
-1.97396e-16
-1.63521e-14
-1.25204e-16
-1.62846e-14
-6.75449e-17
-1.62691e-14
-1.54398e-17
-1.63033e-14
3.41474e-17
-1.63838e-14
8.04801e-17
-1.65036e-14
1.19848e-16
-1.66473e-14
1.43715e-16
-1.67844e-14
1.37086e-16
-1.68621e-14
7.77182e-17
-1.6795e-14
-6.71714e-17
-1.64387e-14
-3.56269e-16
-1.56493e-14
-7.89364e-16
-1.53567e-14
-2.92581e-16
-1.61258e-14
7.69022e-16
-2.99166e-14
1.37909e-14
-3.71719e-14
7.25521e-15
-4.94298e-14
1.22579e-14
-4.9287e-14
-1.42706e-16
-5.23602e-14
3.07312e-15
-5.82193e-14
5.85917e-15
-6.67836e-14
8.56423e-15
-7.78463e-14
1.10628e-14
-9.13471e-14
1.35008e-14
-1.07593e-13
1.62459e-14
-1.26742e-13
1.91485e-14
-1.49087e-13
2.23452e-14
-1.75557e-13
2.64701e-14
-2.0891e-13
3.33531e-14
-2.51032e-13
4.21223e-14
-3.06246e-13
5.52139e-14
-3.85545e-13
7.92984e-14
-4.94547e-13
1.09002e-13
-5.59037e-13
6.44906e-14
-4.94512e-13
-6.45257e-14
-2.55681e-13
-2.38831e-13
-3.52802e-13
9.71217e-14
-1.89334e-13
-1.63469e-13
-1.7578e-13
-1.35532e-14
-1.83896e-13
8.11522e-15
-1.39622e-13
-4.42735e-14
-1.20488e-13
-1.91338e-14
-1.00342e-13
-2.01465e-14
-7.9508e-14
-2.08339e-14
-6.09024e-14
-1.86056e-14
-4.47656e-14
-1.61367e-14
-3.28701e-14
-1.18955e-14
-2.70641e-14
-5.80598e-15
-2.33346e-14
-3.72953e-15
-2.04931e-14
-2.84148e-15
-1.82524e-14
-2.24068e-15
-1.64364e-14
-1.81605e-15
-1.49427e-14
-1.49368e-15
-1.37061e-14
-1.23661e-15
-1.26795e-14
-1.02664e-15
-1.18263e-14
-8.53097e-16
-1.11177e-14
-7.08688e-16
-1.05298e-14
-5.87889e-16
-1.00433e-14
-4.86477e-16
-9.64194e-15
-4.01337e-16
-9.31193e-15
-3.30013e-16
-9.04157e-15
-2.70365e-16
-8.82096e-15
-2.20614e-16
-8.6415e-15
-1.79452e-16
-8.49572e-15
-1.45789e-16
-8.37723e-15
-1.18485e-16
-8.28081e-15
-9.64141e-17
-8.20212e-15
-7.86939e-17
-8.13744e-15
-6.46933e-17
-8.08354e-15
-5.38775e-17
-8.03785e-15
-4.56813e-17
-7.99829e-15
-3.95738e-17
-7.96307e-15
-3.5212e-17
-7.93068e-15
-3.23685e-17
-7.89995e-15
-3.0736e-17
-7.87003e-15
-2.99343e-17
-7.84033e-15
-2.96849e-17
-7.81044e-15
-2.98776e-17
-7.77997e-15
-3.04663e-17
-7.74863e-15
-3.13391e-17
-7.71632e-15
-3.23118e-17
-7.68306e-15
-3.32488e-17
-7.64888e-15
-3.41711e-17
-7.61371e-15
-3.51725e-17
-7.57745e-15
-3.62722e-17
-7.54007e-15
-3.73732e-17
-7.50174e-15
-3.83203e-17
-7.46277e-15
-3.89872e-17
-7.4234e-15
-3.93836e-17
-7.38372e-15
-3.96659e-17
-7.34371e-15
-4.00012e-17
-7.30331e-15
-4.04093e-17
-7.26256e-15
-4.07532e-17
-7.22169e-15
-4.08678e-17
-7.181e-15
-4.06956e-17
-7.14064e-15
-4.03437e-17
-7.10063e-15
-4.00103e-17
-7.06082e-15
-3.98169e-17
-7.02109e-15
-3.97269e-17
-6.98147e-15
-3.95988e-17
-6.9422e-15
-3.9276e-17
-6.90352e-15
-3.86899e-17
-6.86558e-15
-3.79315e-17
-6.82839e-15
-3.71942e-17
-6.79174e-15
-3.66512e-17
-6.7554e-15
-3.63513e-17
-6.7192e-15
-3.61958e-17
-6.68322e-15
-3.59951e-17
-6.64763e-15
-3.55835e-17
-6.61268e-15
-3.49374e-17
-6.5785e-15
-3.41762e-17
-6.54503e-15
-3.34746e-17
-6.51205e-15
-3.29726e-17
-6.47934e-15
-3.27033e-17
-6.44676e-15
-3.25766e-17
-6.41433e-15
-3.24366e-17
-6.38218e-15
-3.2152e-17
-6.3505e-15
-3.16763e-17
-6.31944e-15
-3.1059e-17
-6.28904e-15
-3.04019e-17
-6.25925e-15
-2.98001e-17
-6.22996e-15
-2.92993e-17
-6.20107e-15
-2.8892e-17
-6.17252e-15
-2.8549e-17
-6.14426e-15
-2.82502e-17
-6.11628e-15
-2.79865e-17
-6.08854e-15
-2.77489e-17
-6.06102e-15
-2.75189e-17
-6.03375e-15
-2.72684e-17
-6.00679e-15
-2.69663e-17
-5.9802e-15
-2.65927e-17
-5.95404e-15
-2.61612e-17
-5.92831e-15
-2.57207e-17
-5.90296e-15
-2.53427e-17
-5.87787e-15
-2.50852e-17
-5.85291e-15
-2.49652e-17
-5.82796e-15
-2.495e-17
-5.803e-15
-2.49674e-17
-5.77807e-15
-2.49279e-17
-5.75331e-15
-2.47576e-17
-5.72887e-15
-2.44293e-17
-5.70489e-15
-2.39758e-17
-5.68141e-15
-2.3475e-17
-5.65839e-15
-2.30186e-17
-5.63572e-15
-2.26826e-17
-5.61321e-15
-2.25095e-17
-5.59071e-15
-2.24927e-17
-5.56812e-15
-2.25828e-17
-5.54543e-15
-2.26976e-17
-5.52269e-15
-2.27473e-17
-5.50003e-15
-2.26612e-17
-5.47762e-15
-2.24056e-17
-5.45562e-15
-2.19909e-17
-5.43416e-15
-2.14639e-17
-5.41326e-15
-2.08949e-17
-5.3929e-15
-2.03614e-17
-5.37297e-15
-1.99324e-17
-5.35331e-15
-1.9655e-17
-5.33377e-15
-1.95454e-17
-5.31418e-15
-1.95921e-17
-5.29442e-15
-1.97595e-17
-5.27442e-15
-2.00009e-17
-5.25415e-15
-2.0264e-17
-5.23366e-15
-2.04994e-17
-5.21298e-15
-2.06694e-17
-5.19223e-15
-2.07522e-17
-5.17149e-15
-2.07415e-17
-5.15084e-15
-2.06434e-17
-5.13037e-15
-2.04728e-17
-5.11012e-15
-2.02511e-17
-5.09012e-15
-2.00023e-17
-5.07036e-15
-1.97508e-17
-5.05085e-15
-1.95183e-17
-5.03152e-15
-1.93224e-17
-5.01235e-15
-1.91724e-17
-4.99327e-15
-1.90735e-17
-4.97424e-15
-1.90266e-17
-4.9552e-15
-1.90297e-17
-4.93612e-15
-1.9079e-17
-4.91695e-15
-1.91681e-17
-4.89766e-15
-1.92896e-17
-4.87823e-15
-1.94352e-17
-4.85864e-15
-1.95977e-17
-4.83886e-15
-1.97729e-17
-4.81889e-15
-1.99596e-17
-4.79873e-15
-2.01591e-17
-4.77835e-15
-2.03734e-17
-4.75775e-15
-2.06043e-17
-4.7369e-15
-2.08554e-17
-4.71577e-15
-2.11287e-17
-4.69434e-15
-2.14287e-17
-4.67258e-15
-2.17611e-17
-4.65045e-15
-2.21325e-17
-4.6279e-15
-2.25501e-17
-4.60488e-15
-2.30201e-17
-4.58133e-15
-2.35488e-17
-4.55719e-15
-2.41441e-17
-4.53238e-15
-2.48156e-17
-4.50681e-15
-2.55748e-17
-4.48038e-15
-2.64346e-17
-4.45297e-15
-2.74098e-17
-4.42445e-15
-2.85176e-17
-4.39468e-15
-2.97765e-17
-4.36347e-15
-3.12078e-17
-4.33063e-15
-3.28403e-17
-4.29592e-15
-3.47092e-17
-4.25906e-15
-3.68663e-17
-4.21966e-15
-3.9399e-17
-4.17722e-15
-4.24403e-17
-4.13112e-15
-4.61127e-17
-4.08044e-15
-5.06871e-17
-4.02385e-15
-5.65883e-17
-3.95907e-15
-6.47911e-17
-3.87983e-15
-7.92384e-17
-3.76873e-15
-1.11107e-16
-3.61276e-15
-1.55961e-16
-3.4137e-15
-1.99062e-16
-3.20104e-15
-2.12663e-16
-3.03203e-15
-1.69021e-16
-2.88766e-15
-1.44367e-16
-2.72247e-15
-1.65192e-16
-2.47441e-15
-2.48051e-16
-4.38296e-16
2.45617e-15
-4.21491e-16
2.6964e-15
-2.40229e-16
2.8791e-15
-1.82701e-16
3.06437e-15
-1.85269e-16
3.27651e-15
-2.12132e-16
3.47124e-15
-1.94729e-16
3.63299e-15
-1.61744e-16
3.76054e-15
-1.27552e-16
3.86194e-15
-1.01403e-16
3.94476e-15
-8.28204e-17
4.01423e-15
-6.94658e-17
4.07417e-15
-5.99517e-17
4.12696e-15
-5.27894e-17
4.17423e-15
-4.72713e-17
4.21729e-15
-4.30661e-17
4.25712e-15
-3.98266e-17
4.29437e-15
-3.72536e-17
4.3295e-15
-3.51221e-17
4.36279e-15
-3.32867e-17
4.39446e-15
-3.16596e-17
4.42466e-15
-3.01962e-17
4.45353e-15
-2.88743e-17
4.48121e-15
-2.7684e-17
4.50783e-15
-2.66187e-17
4.53349e-15
-2.5674e-17
4.55833e-15
-2.48413e-17
4.58244e-15
-2.41118e-17
4.60592e-15
-2.3473e-17
4.62884e-15
-2.29157e-17
4.65127e-15
-2.24283e-17
4.67328e-15
-2.20039e-17
4.69491e-15
-2.1634e-17
4.71622e-15
-2.13126e-17
4.73726e-15
-2.10343e-17
4.75805e-15
-2.07941e-17
4.77863e-15
-2.05871e-17
4.79904e-15
-2.04098e-17
4.8193e-15
-2.02565e-17
4.83942e-15
-2.01238e-17
4.85943e-15
-2.00082e-17
4.87934e-15
-1.99062e-17
4.89916e-15
-1.98155e-17
4.91889e-15
-1.97342e-17
4.93855e-15
-1.96613e-17
4.95815e-15
-1.95963e-17
4.97769e-15
-1.95395e-17
4.99718e-15
-1.94923e-17
5.01664e-15
-1.9456e-17
5.03607e-15
-1.94326e-17
5.0555e-15
-1.94229e-17
5.07492e-15
-1.94271e-17
5.09436e-15
-1.94453e-17
5.11383e-15
-1.94741e-17
5.13334e-15
-1.95108e-17
5.15289e-15
-1.95529e-17
5.17249e-15
-1.95988e-17
5.19214e-15
-1.96481e-17
5.21185e-15
-1.97025e-17
5.23161e-15
-1.97657e-17
5.25146e-15
-1.98419e-17
5.27139e-15
-1.99356e-17
5.29144e-15
-2.00508e-17
5.31163e-15
-2.01899e-17
5.33198e-15
-2.03521e-17
5.35251e-15
-2.05329e-17
5.37324e-15
-2.07266e-17
5.39416e-15
-2.09222e-17
5.41526e-15
-2.11103e-17
5.43654e-15
-2.1282e-17
5.45797e-15
-2.14321e-17
5.47953e-15
-2.15613e-17
5.5012e-15
-2.16758e-17
5.52299e-15
-2.17871e-17
5.5449e-15
-2.19097e-17
5.56696e-15
-2.20596e-17
5.58921e-15
-2.22496e-17
5.6117e-15
-2.24862e-17
5.63446e-15
-2.27681e-17
5.65755e-15
-2.30842e-17
5.68096e-15
-2.34185e-17
5.70471e-15
-2.37481e-17
5.72877e-15
-2.4054e-17
5.7531e-15
-2.43218e-17
5.77764e-15
-2.45453e-17
5.80237e-15
-2.47261e-17
5.82724e-15
-2.48727e-17
5.85224e-15
-2.49984e-17
5.87735e-15
-2.5119e-17
5.9026e-15
-2.52489e-17
5.928e-15
-2.54004e-17
5.95359e-15
-2.55823e-17
5.97939e-15
-2.58006e-17
6.00546e-15
-2.6059e-17
6.03182e-15
-2.6361e-17
6.05853e-15
-2.67053e-17
6.08562e-15
-2.70896e-17
6.11313e-15
-2.75067e-17
6.14109e-15
-2.79452e-17
6.16949e-15
-2.83906e-17
6.19832e-15
-2.88271e-17
6.22756e-15
-2.92409e-17
6.25718e-15
-2.96237e-17
6.28715e-15
-2.99774e-17
6.31746e-15
-3.03153e-17
6.34812e-15
-3.0661e-17
6.37916e-15
-3.10415e-17
6.41063e-15
-3.14783e-17
6.4426e-15
-3.19787e-17
6.47513e-15
-3.2534e-17
6.50824e-15
-3.31162e-17
6.54193e-15
-3.36885e-17
6.57615e-15
-3.42155e-17
6.61082e-15
-3.46759e-17
6.6459e-15
-3.50726e-17
6.68133e-15
-3.54336e-17
6.71713e-15
-3.58019e-17
6.75334e-15
-3.62173e-17
6.79004e-15
-3.66963e-17
6.82727e-15
-3.72214e-17
6.86502e-15
-3.77498e-17
6.90326e-15
-3.8235e-17
6.94191e-15
-3.86494e-17
6.98092e-15
-3.9002e-17
7.02025e-15
-3.93269e-17
7.05991e-15
-3.96621e-17
7.09993e-15
-4.00138e-17
7.14027e-15
-4.03417e-17
7.18084e-15
-4.05777e-17
7.22151e-15
-4.06734e-17
7.26215e-15
-4.06372e-17
7.30269e-15
-4.05355e-17
7.34314e-15
-4.04441e-17
7.38353e-15
-4.03849e-17
7.42382e-15
-4.02926e-17
7.46386e-15
-4.00443e-17
7.5034e-15
-3.95393e-17
7.54218e-15
-3.87794e-17
7.58005e-15
-3.78715e-17
7.61701e-15
-3.69551e-17
7.6531e-15
-3.60907e-17
7.68832e-15
-3.52173e-17
7.72254e-15
-3.42226e-17
7.75563e-15
-3.30768e-17
7.78753e-15
-3.19061e-17
7.81847e-15
-3.09362e-17
7.84882e-15
-3.03517e-17
7.87902e-15
-3.02057e-17
7.9095e-15
-3.0481e-17
7.94076e-15
-3.12587e-17
7.97358e-15
-3.28228e-17
8.00917e-15
-3.55889e-17
8.0491e-15
-3.99234e-17
8.09517e-15
-4.60632e-17
8.14942e-15
-5.42465e-17
8.21435e-15
-6.49181e-17
8.29311e-15
-7.87631e-17
8.38963e-15
-9.65224e-17
8.50846e-15
-1.18826e-16
8.65475e-15
-1.46289e-16
8.83454e-15
-1.79787e-16
9.05511e-15
-2.20568e-16
9.32517e-15
-2.70066e-16
9.65487e-15
-3.297e-16
1.00559e-14
-4.00994e-16
1.05418e-14
-4.85952e-16
1.1129e-14
-5.87233e-16
1.18371e-14
-7.08056e-16
1.26894e-14
-8.52313e-16
1.37147e-14
-1.02528e-15
1.49492e-14
-1.23454e-15
1.64403e-14
-1.49111e-15
1.82532e-14
-1.81291e-15
2.04897e-14
-2.23644e-15
2.3325e-14
-2.83538e-15
2.70455e-14
-3.72043e-15
3.28189e-14
-5.77347e-15
4.46678e-14
-1.18489e-14
6.07533e-14
-1.60855e-14
7.93141e-14
-1.85608e-14
1.0009e-13
-2.07758e-14
1.20281e-13
-2.01914e-14
1.39349e-13
-1.90677e-14
1.83486e-13
-4.41373e-14
1.76269e-13
7.21729e-15
1.88735e-13
-1.24654e-14
3.53605e-13
-1.6487e-13
2.56437e-13
9.71673e-14
4.94666e-13
-2.38229e-13
5.6011e-13
-6.54434e-14
4.94543e-13
6.55669e-14
3.85964e-13
1.08578e-13
3.06481e-13
7.94834e-14
2.51117e-13
5.53636e-14
2.0894e-13
4.21775e-14
1.75593e-13
3.33464e-14
1.49121e-13
2.64727e-14
1.26767e-13
2.23539e-14
1.07607e-13
1.91596e-14
9.1346e-14
1.62612e-14
7.78397e-14
1.35063e-14
6.67707e-14
1.1069e-14
5.82002e-14
8.57057e-15
5.23342e-14
5.866e-15
4.92521e-14
3.0821e-15
4.93822e-14
-1.30151e-16
3.71742e-14
1.22081e-14
2.9961e-14
7.2132e-15
1.61024e-14
1.38586e-14
1.53481e-14
7.54236e-16
1.56286e-14
-2.80517e-16
1.64118e-14
-7.83111e-16
1.67644e-14
-3.52597e-16
1.68281e-14
-6.37374e-17
1.67477e-14
8.03756e-17
1.66081e-14
1.39659e-16
1.64619e-14
1.46146e-16
1.63397e-14
1.22187e-16
1.6257e-14
8.27766e-17
1.62205e-14
3.64527e-17
1.62334e-14
-1.29468e-17
1.62985e-14
-6.50636e-17
1.6421e-14
-1.22538e-16
1.66156e-14
-1.94508e-16
1.69143e-14
-2.98771e-16
1.7383e-14
-4.68626e-16
1.81446e-14
-7.61632e-16
1.93976e-14
-1.25299e-15
2.13173e-14
-1.91971e-15
2.41152e-14
-2.79792e-15
2.81292e-14
-4.01395e-15
1.2035e-14
1.60942e-14
6.01798e-15
6.01699e-15
4.53351e-15
1.48446e-15
7.12551e-15
-2.59199e-15
1.03216e-14
-3.19611e-15
1.29512e-14
-2.6296e-15
1.45352e-14
-1.584e-15
1.56896e-14
-1.15437e-15
1.66023e-14
-9.12665e-16
1.734e-14
-7.37752e-16
1.78298e-14
-4.89782e-16
1.8334e-14
-5.04211e-16
1.88588e-14
-5.24823e-16
1.97227e-14
-8.63837e-16
2.09606e-14
-1.23793e-15
2.29609e-14
-2.00032e-15
2.59587e-14
-2.99776e-15
3.07026e-14
-4.74388e-15
3.74618e-14
-6.75923e-15
4.76333e-14
-1.01715e-14
6.31391e-14
-1.55058e-14
8.5878e-14
-2.27389e-14
1.19402e-13
-3.3524e-14
1.65826e-13
-4.64243e-14
2.18323e-13
-5.2497e-14
2.1917e-13
-8.46978e-16
2.31054e-13
-1.18839e-14
4.55148e-13
-2.24093e-13
3.68734e-13
8.64132e-14
2.54263e-13
1.14472e-13
1.66773e-13
8.74903e-14
1.117e-13
5.50722e-14
7.86869e-14
3.30134e-14
5.92105e-14
1.94764e-14
4.745e-14
1.17605e-14
4.00737e-14
7.37626e-15
3.52831e-14
4.79065e-15
3.207e-14
3.2131e-15
2.98579e-14
2.2121e-15
2.83875e-14
1.47039e-15
2.74794e-14
9.08079e-16
2.69599e-14
5.19533e-16
2.66558e-14
3.04107e-16
2.64997e-14
1.56078e-16
2.65405e-14
-4.08177e-17
2.68154e-14
-2.74901e-16
2.73756e-14
-5.60165e-16
2.82013e-14
-8.2574e-16
2.92319e-14
-1.03057e-15
3.03449e-14
-1.11303e-15
3.14532e-14
-1.10822e-15
3.25532e-14
-1.10003e-15
3.37681e-14
-1.21489e-15
3.52349e-14
-1.46676e-15
-1.96604e-15
-8.81318e-16
7.90947e-15
-1.14723e-15
1.35759e-14
-1.15152e-15
1.93088e-14
-8.67545e-16
2.50575e-14
-4.26699e-16
3.09318e-14
-5.12562e-17
3.70314e-14
1.87834e-16
4.3163e-14
3.14831e-16
4.91917e-14
3.71688e-16
5.50813e-14
3.90759e-16
6.08316e-14
3.92055e-16
6.64464e-14
3.86592e-16
7.19251e-14
3.79711e-16
7.72627e-14
3.73474e-16
8.24509e-14
3.68351e-16
8.74798e-14
3.64166e-16
9.23387e-14
3.60556e-16
9.70179e-14
3.57166e-16
1.01509e-13
3.53699e-16
1.05805e-13
3.49931e-16
1.09903e-13
3.45708e-16
1.13798e-13
3.40931e-16
1.1749e-13
3.35549e-16
1.20979e-13
3.29552e-16
1.24267e-13
3.22953e-16
1.27358e-13
3.15786e-16
1.30255e-13
3.08096e-16
1.32964e-13
2.99934e-16
1.35492e-13
2.91353e-16
1.37845e-13
2.82407e-16
1.4003e-13
2.73148e-16
1.42055e-13
2.63626e-16
1.43929e-13
2.53887e-16
1.45659e-13
2.43974e-16
1.47254e-13
2.33926e-16
1.48721e-13
2.23779e-16
1.50069e-13
2.13567e-16
1.51306e-13
2.03315e-16
1.52439e-13
1.9305e-16
1.53474e-13
1.82792e-16
1.5442e-13
1.72558e-16
1.55282e-13
1.62364e-16
1.56067e-13
1.5222e-16
1.5678e-13
1.42136e-16
1.57426e-13
1.32118e-16
1.5801e-13
1.22171e-16
1.58536e-13
1.12296e-16
1.59009e-13
1.02495e-16
1.59433e-13
9.27653e-17
1.5981e-13
8.31058e-17
1.60143e-13
7.35127e-17
1.60435e-13
6.39815e-17
1.60689e-13
5.4507e-17
1.60906e-13
4.50834e-17
1.61088e-13
3.57037e-17
1.61237e-13
2.63609e-17
1.61353e-13
1.70476e-17
1.61438e-13
7.75584e-18
1.61493e-13
-1.52243e-18
1.61518e-13
-1.07956e-17
1.61513e-13
-2.00718e-17
1.61478e-13
-2.93596e-17
1.61413e-13
-3.86675e-17
1.61318e-13
-4.80036e-17
1.61193e-13
-5.73756e-17
1.61035e-13
-6.67911e-17
1.60845e-13
-7.62566e-17
1.6062e-13
-8.57785e-17
1.6036e-13
-9.53613e-17
1.60062e-13
-1.05009e-16
1.59723e-13
-1.14724e-16
1.59342e-13
-1.24507e-16
1.58915e-13
-1.34357e-16
1.58439e-13
-1.4427e-16
1.57911e-13
-1.54242e-16
1.57326e-13
-1.64265e-16
1.5668e-13
-1.74329e-16
1.55968e-13
-1.84421e-16
1.55185e-13
-1.94525e-16
1.54325e-13
-2.04625e-16
1.53383e-13
-2.147e-16
1.52351e-13
-2.24727e-16
1.51223e-13
-2.34683e-16
1.49991e-13
-2.44538e-16
1.48649e-13
-2.54264e-16
1.47188e-13
-2.63827e-16
1.456e-13
-2.7319e-16
1.43877e-13
-2.82311e-16
1.4201e-13
-2.91144e-16
1.39992e-13
-2.99635e-16
1.37814e-13
-3.07727e-16
1.35468e-13
-3.15358e-16
1.32946e-13
-3.22463e-16
1.30242e-13
-3.28979e-16
1.2735e-13
-3.34847e-16
1.24263e-13
-3.40019e-16
1.20977e-13
-3.44457e-16
1.1749e-13
-3.48134e-16
1.13799e-13
-3.51032e-16
1.09904e-13
-3.53142e-16
1.05806e-13
-3.54441e-16
1.01508e-13
-3.54898e-16
9.70149e-14
-3.54585e-16
9.2333e-14
-3.53681e-16
8.74708e-14
-3.52119e-16
8.24383e-14
-3.54618e-16
7.72516e-14
-3.68122e-16
7.19253e-14
-4.19579e-16
6.64917e-14
-5.29743e-16
6.09558e-14
-6.97763e-16
5.53054e-14
-8.42148e-16
4.94669e-14
-9.03465e-16
4.34662e-14
-6.86433e-16
3.71793e-14
6.41514e-18
3.06581e-14
6.86359e-16
2.46632e-14
9.5746e-16
1.90371e-14
8.22465e-16
1.34451e-14
7.86531e-15
-2.94633e-15
-9.48148e-14
-2.60997e-15
-1.46826e-13
-1.37991e-15
-1.9294e-13
1.73625e-16
-2.34021e-13
1.7735e-15
-2.70966e-13
3.39266e-15
-3.0444e-13
5.09042e-15
-3.3483e-13
6.76534e-15
-3.62198e-13
8.25793e-15
-3.86657e-13
9.39304e-15
-4.08332e-13
1.00323e-14
-4.27377e-13
1.01147e-14
-4.43968e-13
9.67483e-15
-4.58282e-13
8.76786e-15
-4.7041e-13
7.46585e-15
-4.80425e-13
5.87705e-15
-4.88413e-13
4.08783e-15
-4.94388e-13
2.17056e-15
-4.98365e-13
1.85954e-16
-5.0035e-13
-1.81579e-15
-5.00343e-13
-3.79255e-15
-4.98335e-13
-5.70785e-15
-4.94312e-13
-7.49562e-15
-4.88286e-13
-9.11861e-15
-4.80203e-13
-1.0192e-14
-4.70371e-13
-1.04179e-14
-4.58657e-13
-9.89899e-15
-4.44602e-13
-8.95697e-15
-4.2792e-13
-7.79897e-15
-4.08643e-13
-6.57121e-15
-3.86737e-13
-5.36767e-15
-3.62136e-13
-3.93777e-15
-3.35039e-13
-2.00498e-15
-3.05291e-13
2.51574e-16
-2.72202e-13
2.2588e-15
-2.3507e-13
3.43546e-15
-1.93469e-13
3.42454e-15
-1.47007e-13
-9.48653e-14
8.17984e-15
-5.54752e-16
8.48201e-15
-4.84871e-16
8.89434e-15
-5.97596e-16
9.51329e-15
-8.31076e-16
1.00859e-14
-7.67328e-16
1.05399e-14
-6.15706e-16
1.08867e-14
-4.74429e-16
1.11606e-14
-3.75304e-16
1.13855e-14
-3.07643e-16
1.15794e-14
-2.634e-16
1.17511e-14
-2.31664e-16
1.19052e-14
-2.06933e-16
1.20445e-14
-1.86586e-16
1.21717e-14
-1.70206e-16
1.22891e-14
-1.57199e-16
1.23986e-14
-1.46774e-16
1.25016e-14
-1.38164e-16
1.25992e-14
-1.30807e-16
1.26919e-14
-1.24344e-16
1.27802e-14
-1.18572e-16
1.28647e-14
-1.13385e-16
1.29458e-14
-1.08724e-16
1.30237e-14
-1.04558e-16
1.30989e-14
-1.00856e-16
1.31716e-14
-9.75801e-17
1.32422e-14
-9.46933e-17
1.33109e-14
-9.21491e-17
1.33779e-14
-8.99076e-17
1.34434e-14
-8.79276e-17
1.35076e-14
-8.61764e-17
1.35705e-14
-8.46252e-17
1.36325e-14
-8.32489e-17
1.36935e-14
-8.20311e-17
1.37536e-14
-8.09557e-17
1.3813e-14
-8.00119e-17
1.38718e-14
-7.91866e-17
1.393e-14
-7.84703e-17
1.39878e-14
-7.78532e-17
1.40451e-14
-7.73262e-17
1.41021e-14
-7.68802e-17
1.41588e-14
-7.65072e-17
1.42152e-14
-7.62e-17
1.42715e-14
-7.59524e-17
1.43277e-14
-7.57597e-17
1.43838e-14
-7.56184e-17
1.44398e-14
-7.55262e-17
1.44958e-14
-7.54821e-17
1.45519e-14
-7.54849e-17
1.4608e-14
-7.55324e-17
1.46642e-14
-7.56252e-17
1.47205e-14
-7.57581e-17
1.47769e-14
-7.59282e-17
1.48335e-14
-7.61319e-17
1.48904e-14
-7.63656e-17
1.49474e-14
-7.66274e-17
1.50047e-14
-7.69168e-17
1.50622e-14
-7.72348e-17
1.512e-14
-7.75843e-17
1.51782e-14
-7.7969e-17
1.52366e-14
-7.83927e-17
1.52954e-14
-7.88589e-17
1.53546e-14
-7.93695e-17
1.54142e-14
-7.99225e-17
1.54741e-14
-8.05156e-17
1.55345e-14
-8.11395e-17
1.55954e-14
-8.17857e-17
1.56567e-14
-8.24438e-17
1.57185e-14
-8.31065e-17
1.57809e-14
-8.37692e-17
1.58437e-14
-8.44324e-17
1.59072e-14
-8.51016e-17
1.59712e-14
-8.57862e-17
1.60358e-14
-8.6499e-17
1.6101e-14
-8.72519e-17
1.61668e-14
-8.80554e-17
1.62332e-14
-8.89142e-17
1.63002e-14
-8.98254e-17
1.63679e-14
-9.07821e-17
1.64363e-14
-9.17661e-17
1.65053e-14
-9.276e-17
1.6575e-14
-9.3747e-17
1.66454e-14
-9.47145e-17
1.67165e-14
-9.56562e-17
1.67884e-14
-9.65727e-17
1.68609e-14
-9.74715e-17
1.69343e-14
-9.83652e-17
1.70085e-14
-9.92688e-17
1.70834e-14
-1.00197e-16
1.71592e-14
-1.01163e-16
1.72358e-14
-1.02176e-16
1.73132e-14
-1.03242e-16
1.73915e-14
-1.04365e-16
1.74707e-14
-1.05547e-16
1.75508e-14
-1.06788e-16
1.76318e-14
-1.08084e-16
1.77138e-14
-1.0943e-16
1.77967e-14
-1.10817e-16
1.78805e-14
-1.12232e-16
1.79653e-14
-1.13663e-16
1.80512e-14
-1.15098e-16
1.81381e-14
-1.16532e-16
1.82261e-14
-1.17965e-16
1.83152e-14
-1.19412e-16
1.84054e-14
-1.20892e-16
1.84968e-14
-1.22429e-16
1.85893e-14
-1.24036e-16
1.8683e-14
-1.25722e-16
1.8778e-14
-1.27477e-16
1.88741e-14
-1.29281e-16
1.89716e-14
-1.31106e-16
1.90703e-14
-1.32921e-16
1.91703e-14
-1.34703e-16
1.92717e-14
-1.36449e-16
1.93744e-14
-1.38171e-16
1.94785e-14
-1.39896e-16
1.95839e-14
-1.41649e-16
1.96907e-14
-1.43443e-16
1.97987e-14
-1.45264e-16
1.99081e-14
-1.47078e-16
2.00187e-14
-1.48836e-16
2.01305e-14
-1.50503e-16
2.02436e-14
-1.52059e-16
2.03578e-14
-1.53514e-16
2.0473e-14
-1.54883e-16
2.05892e-14
-1.56159e-16
2.07061e-14
-1.57298e-16
2.08237e-14
-1.58227e-16
2.0942e-14
-1.58879e-16
2.10606e-14
-1.59227e-16
2.11793e-14
-1.59294e-16
2.1298e-14
-1.59121e-16
2.14163e-14
-1.58721e-16
2.15341e-14
-1.58041e-16
2.1651e-14
-1.56972e-16
2.17669e-14
-1.55418e-16
2.18815e-14
-1.53367e-16
2.19945e-14
-1.50921e-16
2.21058e-14
-1.48236e-16
2.22152e-14
-1.4543e-16
2.23225e-14
-1.42535e-16
2.24278e-14
-1.3956e-16
2.25314e-14
-1.36612e-16
2.26334e-14
-1.33984e-16
2.27346e-14
-1.32119e-16
2.28357e-14
-1.3149e-16
2.29381e-14
-1.32516e-16
2.30432e-14
-1.35615e-16
2.31533e-14
-1.41386e-16
2.32712e-14
-1.50721e-16
2.34004e-14
-1.64757e-16
2.35452e-14
-1.84704e-16
2.37109e-14
-2.11786e-16
2.39041e-14
-2.47401e-16
2.41325e-14
-2.93334e-16
2.44055e-14
-3.51803e-16
2.47343e-14
-4.25281e-16
2.51319e-14
-5.16377e-16
2.56136e-14
-6.27992e-16
2.61974e-14
-7.63642e-16
2.69044e-14
-9.27583e-16
2.7759e-14
-1.12467e-15
2.87896e-14
-1.36028e-15
3.00293e-14
-1.64071e-15
3.15171e-14
-1.97369e-15
3.32987e-14
-2.36886e-15
3.54286e-14
-2.83802e-15
3.79725e-14
-3.39618e-15
4.10108e-14
-4.06356e-15
4.46449e-14
-4.86864e-15
4.90067e-14
-5.85291e-15
5.42747e-14
-7.0809e-15
6.0698e-14
-8.65976e-15
6.8643e-14
-1.07805e-14
7.8793e-14
-1.38704e-14
9.18796e-14
-1.886e-14
1.06073e-13
-2.60419e-14
1.22963e-13
-3.29759e-14
1.43055e-13
-3.86527e-14
1.65545e-13
-4.32662e-14
1.9238e-13
-4.70261e-14
2.2705e-13
-5.37382e-14
2.43447e-13
-6.05334e-14
3.04708e-13
-5.40443e-14
3.85689e-13
-9.34467e-14
3.56042e-13
-1.35222e-13
5.29647e-13
-7.64376e-14
4.77395e-13
-1.85977e-13
4.81453e-13
-6.95018e-14
5.40901e-13
6.1191e-15
5.52519e-13
9.69608e-14
5.49078e-13
8.29243e-14
5.12196e-13
9.22456e-14
4.62765e-13
9.16083e-14
4.13271e-13
8.28408e-14
3.65911e-13
7.38325e-14
3.214e-13
6.68645e-14
2.80742e-13
5.98178e-14
2.4418e-13
5.28234e-14
2.12147e-13
4.55393e-14
1.84726e-13
3.84903e-14
1.61557e-13
3.17389e-14
1.42077e-13
2.53462e-14
1.25246e-13
1.99129e-14
1.07175e-13
1.7941e-14
9.45727e-14
2.48103e-14
7.24036e-14
2.93824e-14
6.17064e-14
2.45557e-14
5.90816e-14
3.37908e-15
5.86891e-14
1.11957e-16
5.68285e-14
1.07744e-15
5.52991e-14
1.17681e-15
5.39044e-14
1.331e-15
5.26252e-14
1.35954e-15
5.1498e-14
1.26689e-15
5.05449e-14
1.09929e-15
4.97752e-14
8.91894e-16
4.91896e-14
6.68311e-16
4.8783e-14
4.43126e-16
4.85464e-14
2.23564e-16
4.8471e-14
1.0395e-17
4.85498e-14
-2.01306e-16
4.87805e-14
-4.25248e-16
4.91676e-14
-6.85909e-16
4.97193e-14
-1.02028e-15
5.0427e-14
-1.46932e-15
5.12081e-14
-2.03415e-15
5.18633e-14
-2.57484e-15
5.15833e-14
-2.51796e-15
4.63834e-14
1.18596e-15
4.73911e-14
1.50865e-14
3.62728e-14
1.71353e-14
3.40968e-14
3.66043e-15
3.80568e-14
-6.55197e-15
4.14711e-14
-6.61037e-15
4.40524e-14
-5.21097e-15
4.64454e-14
-3.97693e-15
4.83998e-14
-3.10883e-15
5.01146e-14
-2.62746e-15
5.17518e-14
-2.37494e-15
5.35761e-14
-2.31412e-15
5.56323e-14
-2.56042e-15
5.82377e-14
-3.13015e-15
6.15013e-14
-4.12745e-15
6.58708e-14
-5.6074e-15
7.16335e-14
-7.76307e-15
7.94368e-14
-1.0801e-14
8.97311e-14
-1.50382e-14
1.03709e-13
-2.07376e-14
1.22172e-13
-2.86339e-14
1.45937e-13
-3.92713e-14
1.75838e-13
-5.26399e-14
2.09999e-13
-6.76845e-14
2.38942e-13
-7.5368e-14
2.43488e-13
-5.70427e-14
2.55686e-13
-1.30449e-14
1.76114e-13
6.7688e-14
1.2592e-13
-1.739e-13
2.38361e-13
-2.60275e-14
2.60914e-13
9.19183e-14
2.37871e-13
1.10534e-13
2.02954e-13
8.99886e-14
1.70574e-13
6.53937e-14
1.444e-13
4.56502e-14
1.24597e-13
3.15637e-14
1.10095e-13
2.18787e-14
9.95615e-14
1.5324e-14
9.1879e-14
1.08956e-14
8.64003e-14
7.69089e-15
8.26848e-14
5.18584e-15
8.03179e-14
3.27503e-15
7.88506e-14
1.98691e-15
7.79316e-14
1.22303e-15
7.749e-14
5.97702e-16
7.75824e-14
-1.33204e-16
7.83879e-14
-1.08047e-15
7.99214e-14
-2.09359e-15
8.20862e-14
-2.99053e-15
8.45859e-14
-3.53028e-15
8.71115e-14
-3.63867e-15
8.94196e-14
-3.41625e-15
9.14283e-14
-3.10876e-15
9.31766e-14
-2.96319e-15
-3.10493e-15
-9.33197e-14
-3.05521e-15
-9.16569e-14
-2.86898e-15
-8.98585e-14
-2.79811e-15
-8.79749e-14
-2.76544e-15
-8.6068e-14
-2.71414e-15
-8.41918e-14
-2.63265e-15
-8.23839e-14
-2.51397e-15
-8.07281e-14
-2.29828e-15
-7.93681e-14
-1.88564e-15
-7.84773e-14
-1.23578e-15
-7.82161e-14
-3.5972e-16
-7.8736e-14
7.16103e-16
-8.01686e-14
1.97462e-15
-8.26856e-14
3.47033e-15
-8.65148e-14
5.30045e-15
-9.19881e-14
7.64371e-15
-9.96108e-14
1.08046e-14
-1.10124e-13
1.5251e-14
-1.24557e-13
2.16938e-14
-1.44192e-13
3.11735e-14
-1.70191e-13
4.50344e-14
-2.02476e-13
6.44407e-14
-2.37558e-13
8.86168e-14
-2.6194e-13
1.0925e-13
-2.42694e-13
9.34823e-14
-1.26009e-13
-2.21815e-14
-1.62603e-13
-1.86241e-13
-2.527e-13
7.25309e-14
-2.39901e-13
-1.2127e-14
-2.37562e-13
-5.25191e-14
-2.09494e-13
-7.4007e-14
-1.7558e-13
-6.74486e-14
-1.45852e-13
-5.25494e-14
-1.22213e-13
-3.91822e-14
-1.03887e-13
-2.85373e-14
-9.00057e-14
-2.06312e-14
-7.98111e-14
-1.49473e-14
-7.20728e-14
-1.07303e-14
-6.6371e-14
-7.71859e-15
-6.20285e-14
-5.58013e-15
-5.87802e-14
-4.11883e-15
-5.61759e-14
-3.13972e-15
-5.41065e-14
-2.58451e-15
-5.22649e-14
-2.35015e-15
-5.05991e-14
-2.4171e-15
-4.88554e-14
-2.67526e-15
-4.68688e-14
-3.15881e-15
-4.44431e-14
-4.02628e-15
-4.18286e-14
-5.25869e-15
-3.83894e-14
-6.65293e-15
-3.43892e-14
-6.60662e-15
-3.65272e-14
3.55007e-15
-4.75764e-14
1.71014e-14
-4.65773e-14
1.5064e-14
-5.1765e-14
1.17944e-15
-5.2037e-14
-2.52572e-15
-5.1373e-14
-2.58365e-15
-5.0584e-14
-2.04421e-15
-4.98686e-14
-1.47993e-15
-4.93096e-14
-1.03071e-15
-4.89156e-14
-6.95809e-16
-4.86786e-14
-4.34424e-16
-4.8594e-14
-2.09767e-16
-4.8664e-14
2.46317e-18
-4.88955e-14
2.16053e-16
-4.92972e-14
4.35889e-16
-4.98779e-14
6.61135e-16
-5.06426e-14
8.84558e-16
-5.15905e-14
1.09157e-15
-5.27119e-14
1.25855e-15
-5.39845e-14
1.3503e-15
-5.5372e-14
1.32035e-15
-5.68923e-14
1.16398e-15
-5.87432e-14
1.06154e-15
-5.91222e-14
8.64718e-17
-6.16905e-14
3.3373e-15
-7.2404e-14
2.45044e-14
-9.45899e-14
2.94411e-14
-1.07191e-13
2.48592e-14
-1.25281e-13
1.79467e-14
-1.42112e-13
1.99046e-14
-1.61588e-13
2.53346e-14
-1.84749e-13
3.17254e-14
-2.1216e-13
3.84743e-14
-2.44178e-13
4.5518e-14
-2.80726e-13
5.27946e-14
-3.2137e-13
5.97925e-14
-3.65877e-13
6.68523e-14
-4.1327e-13
7.38625e-14
-4.62842e-13
8.29258e-14
-5.12378e-13
9.16579e-14
-5.49263e-13
9.20985e-14
-5.52427e-13
8.24627e-14
-5.40669e-13
9.72443e-14
-4.82937e-13
6.75839e-15
-4.78861e-13
-6.86018e-14
-5.30587e-13
-1.87105e-13
-3.56905e-13
-7.65595e-14
-3.85682e-13
-1.34692e-13
-3.05572e-13
-9.3663e-14
-2.4359e-13
-5.38677e-14
-2.27353e-13
-6.05105e-14
-1.92665e-13
-5.38214e-14
-1.65734e-13
-4.70771e-14
-1.43232e-13
-4.33368e-14
-1.23104e-13
-3.87336e-14
-1.06183e-13
-3.30568e-14
-9.19633e-14
-2.61156e-14
-7.8853e-14
-1.89164e-14
-6.86766e-14
-1.39059e-14
-6.07141e-14
-1.08039e-14
-5.42779e-14
-8.67691e-15
-4.89999e-14
-7.094e-15
-4.46302e-14
-5.86334e-15
-4.09897e-14
-4.87713e-15
-3.79462e-14
-4.07018e-15
-3.53982e-14
-3.4011e-15
-3.3265e-14
-2.84185e-15
-3.14809e-14
-2.37202e-15
-2.99911e-14
-1.97618e-15
-2.875e-14
-1.64245e-15
-2.77186e-14
-1.36142e-15
-2.68636e-14
-1.12537e-15
-2.61565e-14
-9.27777e-16
-2.55727e-14
-7.63201e-16
-2.50914e-14
-6.2706e-16
-2.46946e-14
-5.15309e-16
-2.43668e-14
-4.2426e-16
-2.40948e-14
-3.50693e-16
-2.38675e-14
-2.91924e-16
-2.36757e-14
-2.45672e-16
-2.35115e-14
-2.09903e-16
-2.33683e-14
-1.82797e-16
-2.32407e-14
-1.6281e-16
-2.31244e-14
-1.48664e-16
-2.30159e-14
-1.39212e-16
-2.29124e-14
-1.33391e-16
-2.28118e-14
-1.30327e-16
-2.27122e-14
-1.29383e-16
-2.26127e-14
-1.30052e-16
-2.25121e-14
-1.31841e-16
-2.24101e-14
-1.34319e-16
-2.23062e-14
-1.37157e-16
-2.22002e-14
-1.40151e-16
-2.20922e-14
-1.43202e-16
-2.19822e-14
-1.46235e-16
-2.18705e-14
-1.49103e-16
-2.17572e-14
-1.51624e-16
-2.16425e-14
-1.53672e-16
-2.15267e-14
-1.55234e-16
-2.14099e-14
-1.5641e-16
-2.12926e-14
-1.57334e-16
-2.1175e-14
-1.58059e-16
-2.10572e-14
-1.58499e-16
-2.09395e-14
-1.58544e-16
-2.0822e-14
-1.58168e-16
-2.0705e-14
-1.57442e-16
-2.05885e-14
-1.56494e-16
-2.04728e-14
-1.55457e-16
-2.03582e-14
-1.54368e-16
-2.02446e-14