/*--------------------------------*- C++ -*----------------------------------*\
| =========                 |                                                 |
| \\      /  F ield         | OpenFOAM: The Open Source CFD Toolbox           |
|  \\    /   O peration     | Version:  2.2.1                                 |
|   \\  /    A nd           | Web:      www.OpenFOAM.org                      |
|    \\/     M anipulation  |                                                 |
\*---------------------------------------------------------------------------*/
FoamFile
{
    version     2.0;
    format      ascii;
    class       volVectorField;
    location    "5e-06";
    object      U;
}
// * * * * * * * * * * * * * * * * * * * * * * * * * * * * * * * * * * * * * //

dimensions      [0 1 -1 0 0 0 0];

internalField   nonuniform List<vector> 
22464
(
(-0.0100845 0.0964918 -8.02661e-45)
(-0.0104985 0.0864123 -8.02692e-45)
(-0.0104293 0.0830677 0)
(-0.0104443 0.0797575 -9.35779e-45)
(-0.0103337 0.0770804 2.38407e-44)
(-0.0101874 0.074898 3.44856e-44)
(-0.0100423 0.0730796 5.04846e-45)
(-0.00991295 0.0715409 3.42827e-45)
(-0.00980923 0.0702572 0)
(-0.00974218 0.0692606 3.29038e-44)
(-0.00973059 0.0686366 1.51447e-47)
(-0.0097974 0.0684956 -2.99233e-44)
(-0.0099684 0.0689486 -5.6321e-45)
(-0.0102719 0.0701124 -8.23978e-45)
(-0.010747 0.0721423 0)
(-0.011456 0.0752661 -1.74839e-44)
(-0.0125082 0.0798512 -3.92085e-44)
(-0.0140979 0.0865066 4.98227e-44)
(-0.0165809 0.0962675 7.0136e-44)
(-0.0206362 0.110945 0)
(-0.0275914 0.1338 -1.93784e-43)
(-0.0399741 0.170646 -4.0351e-43)
(-0.0619432 0.231759 0)
(-0.0986416 0.338285 -2.60852e-43)
(-0.153129 0.539754 0)
(-0.204883 0.926667 -1.09438e-41)
(-0.12713 1.18028 -3.6296e-41)
(0.138877 0.704881 -1.44182e-42)
(0.00764203 0.540139 3.96495e-50)
(-0.049427 0.541583 -6.56001e-42)
(-0.00962372 0.50361 -1.83623e-42)
(-0.00335017 0.381908 2.19722e-43)
(-0.00559622 0.270393 -5.92776e-44)
(-0.00730372 0.193637 7.31495e-45)
(-0.00761669 0.143374 -1.56294e-43)
(-0.0079817 0.110162 -1.15933e-43)
(-0.00793923 0.0883244 -2.9539e-44)
(-0.00739326 0.0736512 2.34233e-44)
(-0.0074271 0.0637178 4.52142e-44)
(-0.00720548 0.0573194 1.52489e-44)
(-0.0071852 0.0531761 1.48358e-44)
(-0.00698909 0.0505326 -1.06025e-44)
(-0.00696088 0.0487683 1.70218e-44)
(-0.00667423 0.0474892 -6.87922e-45)
(-0.00642085 0.0462264 1.052e-45)
(-0.0058758 0.0446796 -1.5833e-52)
(-0.00537081 0.0425954 3.22436e-46)
(-0.00476583 0.0399792 4.48218e-45)
(-0.00382615 0.0364709 2.07069e-44)
(-0.00195243 0.0311083 9.9638e-44)
(-0.000105679 0.0233389 -4.98066e-52)
(0.00109153 0.0147854 -1.51941e-43)
(-0.00262073 0.0115773 2.09529e-43)
(-0.0101097 0.0225892 1.88798e-43)
(-0.0251976 0.0505613 3.73788e-43)
(-0.00388279 0.0693593 -1.20332e-51)
(-0.00484731 0.0610273 -3.12176e-43)
(-0.005404 0.0533318 -5.15504e-44)
(-0.00562189 0.0487808 -3.78823e-44)
(-0.00579942 0.0461356 -4.07822e-44)
(-0.00588687 0.0445486 7.04838e-53)
(-0.00591089 0.0435576 2.09298e-44)
(-0.00590676 0.0429166 5.0615e-47)
(-0.00589633 0.0425002 -1.10339e-44)
(-0.00589131 0.0422493 -7.13642e-46)
(-0.00589764 0.0421393 1.1423e-45)
(-0.00591724 0.0421612 2.20812e-45)
(-0.00594903 0.042309 1.53728e-45)
(-0.00598714 0.0425716 2.70139e-45)
(-0.00601904 0.0429233 1.68075e-44)
(-0.00602046 0.0433097 2.92311e-44)
(-0.00594972 0.0436288 -1.00984e-44)
(-0.00574466 0.0436939 6.41888e-45)
(-0.00531994 0.0431774 9.12187e-44)
(-0.00471852 0.0417036 7.44627e-44)
(-0.00474548 0.0394201 1.15145e-43)
(-0.00466455 0.039366 2.27924e-43)
(-0.0218472 0.0553651 7.57451e-44)
(-0.0174966 0.0862169 2.32962e-43)
(-0.0258076 0.111778 -2.74576e-43)
(-0.0124094 0.128543 -4.37615e-43)
(-0.0176637 0.13195 1.17378e-43)
(-0.0223268 0.141941 1.17635e-43)
(-0.0273429 0.160004 -5.40677e-44)
(-0.0329112 0.185105 -5.80561e-44)
(-0.0392746 0.216646 8.96971e-44)
(-0.0469788 0.254846 2.99967e-43)
(-0.0559232 0.300253 3.38685e-43)
(-0.0664416 0.353349 4.06995e-43)
(-0.0794855 0.415538 5.91944e-43)
(-0.0982489 0.490917 9.20636e-43)
(-0.123289 0.586299 1.34871e-42)
(-0.159607 0.712063 2.16799e-42)
(-0.21588 0.890131 3.95858e-42)
(-0.290508 1.13195 6.21078e-42)
(-0.295866 1.31566 0)
(-0.299834 1.2639 -8.45749e-42)
(-0.36064 1.05009 -1.63259e-41)
(-0.341844 0.668283 -5.96047e-50)
(-0.0653046 0.770119 4.83544e-42)
(-0.0996842 0.495411 0)
(-0.0958341 0.453012 6.75707e-43)
(-0.0282942 0.420036 5.91587e-43)
(-0.0383569 0.34203 9.21079e-44)
(-0.0282412 0.286755 0)
(-0.017709 0.234514 1.35328e-42)
(-0.0111449 0.183279 9.41596e-43)
(-0.00614219 0.137606 4.56408e-43)
(-0.00470183 0.100851 8.72978e-44)
(-0.00735628 0.0770758 3.06113e-44)
(-0.00735996 0.0645266 -1.76731e-44)
(-0.00668501 0.0563787 3.04202e-44)
(-0.00608337 0.0500031 2.52347e-44)
(-0.00555422 0.044813 1.93583e-44)
(-0.00510049 0.0405524 -3.12112e-45)
(-0.00471963 0.0370333 0)
(-0.00440184 0.0341148 0)
(-0.00413679 0.0316895 7.51132e-45)
(-0.00391606 0.0296735 -2.60879e-45)
(-0.00373308 0.0279997 0)
(-0.00358198 0.0266133 0)
(-0.00345714 0.0254681 -3.4887e-54)
(-0.00335395 0.0245247 -4.35962e-45)
(-0.00326928 0.0237504 1.65288e-47)
(-0.00320062 0.0231173 6.29991e-46)
(-0.0031451 0.0226015 0)
(-0.00309981 0.0221824 0)
(-0.00306259 0.0218422 2.38468e-45)
(-0.00303211 0.0215658 2.85744e-45)
(-0.0030071 0.021341 0)
(-0.00298614 0.0211569 0)
(-0.00296808 0.0210047 0)
(-0.00295234 0.0208769 0)
(-0.0029386 0.0207674 4.68518e-45)
(-0.00292621 0.0206713 4.9854e-45)
(-0.00291437 0.0205845 5.78586e-45)
(-0.00290265 0.0205034 5.47912e-45)
(-0.00289112 0.0204255 0)
(-0.00287985 0.0203489 0)
(-0.00286856 0.020272 5.97516e-45)
(-0.00285682 0.0201941 6.11242e-45)
(-0.00284446 0.0201143 0)
(-0.00283177 0.0200322 0)
(-0.00281914 0.0199476 -6.06317e-45)
(-0.00280657 0.0198601 -6.59413e-45)
(-0.00279367 0.0197699 6.72964e-45)
(-0.00277996 0.0196772 7.22447e-45)
(-0.00276531 0.0195819 0)
(-0.0027501 0.0194843 -4.34244e-46)
(-0.00273496 0.0193846 0)
(-0.00272028 0.0192832 0)
(-0.00270587 0.0191805 0)
(-0.0026912 0.0190768 6.76243e-45)
(-0.00267592 0.0189725 6.71912e-45)
(-0.00266022 0.0188676 -6.61956e-45)
(-0.00264468 0.0187624 -1.29632e-44)
(-0.00262986 0.018657 -1.27008e-44)
(-0.00261578 0.0185519 -5.82388e-45)
(-0.00260193 0.0184473 6.21922e-45)
(-0.00258763 0.0183434 6.1834e-45)
(-0.00257257 0.0182402 6.56863e-45)
(-0.00255702 0.0181378 5.98133e-45)
(-0.00254172 0.0180362 0)
(-0.00252739 0.0179356 4.67021e-46)
(-0.00251424 0.0178364 5.61194e-45)
(-0.00250185 0.0177385 -4.02518e-46)
(-0.00248943 0.0176422 3.88203e-46)
(-0.00247633 0.0175472 5.72001e-45)
(-0.00246242 0.0174533 0)
(-0.00244819 0.0173602 5.63835e-45)
(-0.00243439 0.017268 5.5288e-45)
(-0.00242155 0.0171771 5.85748e-45)
(-0.00240971 0.0170875 1.07988e-44)
(-0.00239844 0.0169995 -3.61076e-46)
(-0.00238713 0.0169128 3.4528e-46)
(-0.00237532 0.0168274 1.11625e-44)
(-0.00236299 0.0167427 5.24293e-45)
(-0.00235046 0.0166587 5.55463e-45)
(-0.00233819 0.0165755 1.09175e-44)
(-0.00232652 0.0164932 4.98691e-45)
(-0.00231548 0.0164121 5.27676e-45)
(-0.00230487 0.0163324 5.25816e-45)
(-0.00229442 0.0162542 -5.30053e-45)
(-0.00228392 0.0161775 -1.07803e-44)
(-0.00227334 0.016102 -1.10117e-44)
(-0.00226278 0.0160274 -5.27316e-45)
(-0.00225235 0.0159538 5.74084e-45)
(-0.0022421 0.0158809 5.83594e-45)
(-0.00223202 0.0158087 6.23021e-45)
(-0.00222204 0.0157371 1.19022e-44)
(-0.00221209 0.0156663 5.97405e-45)
(-0.00220219 0.0155962 -5.98905e-45)
(-0.00219241 0.015527 -8.1356e-53)
(-0.00218283 0.0154588 -3.30424e-46)
(-0.00217349 0.0153915 3.30088e-46)
(-0.00216436 0.0153251 6.29276e-45)
(-0.00215533 0.0152595 0)
(-0.00214629 0.0151944 6.54964e-45)
(-0.00213714 0.0151296 6.61952e-45)
(-0.00212787 0.015065 6.89562e-45)
(-0.00211855 0.0150006 1.31393e-44)
(-0.0021093 0.0149366 -2.79063e-46)
(-0.00210026 0.0148732 2.8893e-46)
(-0.00209151 0.0148106 1.26624e-44)
(-0.00208306 0.0147492 6.03417e-45)
(-0.00207485 0.0146887 -6.39952e-45)
(-0.00206677 0.0146292 -6.50765e-45)
(-0.00205868 0.0145704 -2.73056e-46)
(-0.00205047 0.0145118 6.71418e-45)
(-0.00204211 0.0144533 -2.46945e-46)
(-0.00203361 0.0143947 -6.70208e-45)
(-0.00202506 0.0143361 6.59297e-45)
(-0.00201657 0.0142776 2.53139e-52)
(-0.00200828 0.0142196 -1.25691e-44)
(-0.00200025 0.0141623 2.67365e-46)
(-0.00199255 0.0141062 6.10545e-45)
(-0.00198514 0.0140513 6.42208e-45)
(-0.00197797 0.0139977 1.25089e-44)
(-0.00197095 0.0139452 -2.87418e-46)
(-0.00196396 0.0138936 2.80334e-46)
(-0.00195691 0.0138425 6.93435e-45)
(-0.00194973 0.0137916 -7.41554e-45)
(-0.00194239 0.0137405 2.42259e-46)
(-0.00193487 0.013689 7.42763e-45)
(-0.0019272 0.0136369 0)
(-0.00191944 0.0135843 7.37761e-45)
(-0.00191164 0.0135311 -2.06836e-46)
(-0.00190385 0.0134777 -7.0669e-45)
(-0.00189613 0.0134241 6.86264e-45)
(-0.00188851 0.0133707 -2.11685e-46)
(-0.00188101 0.0133175 2.16914e-46)
(-0.00187365 0.0132649 1.26155e-44)
(-0.00186642 0.0132127 5.96301e-45)
(-0.0018593 0.0131612 6.12033e-45)
(-0.00185227 0.0131103 6.09409e-45)
(-0.00184531 0.0130599 0)
(-0.00183837 0.01301 6.15382e-45)
(-0.00183145 0.0129603 -2.40849e-46)
(-0.00182451 0.0129109 -6.30715e-45)
(-0.00181754 0.0128615 6.39661e-45)
(-0.00181052 0.0128121 6.24793e-45)
(-0.00180344 0.0127626 0)
(-0.00179631 0.0127128 6.63152e-45)
(-0.0017891 0.0126626 6.6836e-45)
(-0.00178182 0.0126121 6.94666e-45)
(-0.00177448 0.0125612 1.34749e-44)
(-0.00176706 0.0125097 6.74026e-45)
(-0.00175957 0.0124578 6.72918e-45)
(-0.001752 0.0124053 6.70619e-45)
(-0.00174434 0.0123523 -4.56066e-46)
(-0.00173659 0.0122987 6.63245e-45)
(-0.00172874 0.0122444 1.31707e-44)
(-0.00172078 0.0121893 6.53369e-45)
(-0.00171268 0.0121334 6.47889e-45)
(-0.00170445 0.0120766 6.42224e-45)
(-0.00169605 0.0120188 7.60156e-62)
(-0.00168747 0.0119599 6.30706e-45)
(-0.00167868 0.0118996 6.24972e-45)
(-0.00166966 0.011838 -2.69913e-46)
(-0.00166038 0.0117747 6.41602e-45)
(-0.00165079 0.0117095 6.08317e-45)
(-0.00164087 0.0116423 6.03027e-45)
(-0.00163055 0.0115727 6.23008e-46)
(-0.0016198 0.0115004 -5.9288e-45)
(-0.00160855 0.0114251 -5.88011e-45)
(-0.00159673 0.0113463 -1.20234e-44)
(-0.00158426 0.0112636 -6.16377e-45)
(-0.00157105 0.0111764 5.73941e-45)
(-0.00155697 0.011084 -8.51259e-46)
(-0.00154187 0.0109857 -5.1921e-45)
(-0.00152551 0.0108803 4.90691e-46)
(-0.00150752 0.0107663 6.08362e-45)
(-0.00148749 0.0106417 4.91404e-45)
(-0.00146492 0.0105042 -6.43053e-46)
(-0.00143909 0.0103507 -7.1857e-46)
(-0.00140952 0.0101769 -7.96698e-46)
(-0.00137497 0.00996544 0)
(-0.00133161 0.00969061 9.02594e-46)
(-0.00127986 0.00934026 -9.47467e-46)
(-0.00120067 0.008911 -9.68645e-46)
(-0.00113115 0.00847608 1.91695e-45)
(-0.0010451 0.00808112 1.58563e-45)
(-0.000931957 0.00763351 -1.61421e-45)
(-0.000762989 0.00703701 -1.41663e-45)
(-0.000274235 0.00570331 -1.12241e-45)
(0.000274223 0.0056943 1.4535e-45)
(0.000759272 0.00699635 1.92013e-45)
(0.000927774 0.00759541 -3.97445e-47)
(0.00104645 0.00808246 -2.18501e-45)
(0.00113409 0.00856373 2.24116e-45)
(0.00122247 0.0090141 4.94596e-47)
(0.00128189 0.00938428 3.95234e-47)
(0.00133114 0.00968887 -9.4767e-46)
(0.00137181 0.00993978 8.46092e-46)
(0.00140677 0.0101515 7.79989e-46)
(0.00143692 0.0103334 7.04398e-46)
(0.00146318 0.0104922 2.57242e-48)
(0.00148622 0.0106331 5.82666e-46)
(0.00150657 0.0107594 -5.35586e-46)
(0.0015247 0.0108745 0)
(0.00154115 0.0109806 -4.6207e-46)
(0.0015563 0.0110797 9.63188e-50)
(0.00157045 0.011173 5.92004e-45)
(0.00158377 0.0112613 5.3357e-50)
(0.00159639 0.0113452 -5.19895e-45)
(0.00160838 0.0114251 5.59415e-45)
(0.00161981 0.0115014 5.95521e-45)
(0.00163073 0.0115745 -9.84309e-52)
(0.00164117 0.0116447 5.65166e-45)
(0.0016512 0.0117123 1.16341e-44)
(0.00166084 0.0117776 1.01844e-51)
(0.00167015 0.0118409 -5.11827e-45)
(0.00167917 0.0119024 2.77329e-46)
(0.00168794 0.0119624 2.70011e-46)
(0.00169648 0.0120211 2.63133e-46)
(0.00170483 0.0120786 -5.7459e-45)
(0.001713 0.0121351 -5.76887e-45)
(0.00172103 0.0121907 5.79763e-45)
(0.00172892 0.0122455 1.16665e-44)
(0.0017367 0.0122997 5.87654e-45)
(0.00174439 0.0123532 4.56309e-46)
(0.00175199 0.0124063 5.98779e-45)
(0.00175952 0.0124589 6.05541e-45)
(0.00176699 0.0125112 6.12999e-45)
(0.00177441 0.0125631 1.24202e-44)
(0.00178178 0.0126148 6.08218e-45)
(0.00178912 0.0126662 6.37955e-45)
(0.00179642 0.0127174 6.46465e-45)
(0.0018037 0.0127684 0)
(0.00181095 0.0128192 6.83649e-45)
(0.00181818 0.0128699 6.69819e-45)
(0.00182539 0.0129204 -6.76422e-45)
(0.00183258 0.0129709 2.15002e-46)
(0.00183976 0.0130212 6.87516e-45)
(0.00184693 0.0130715 0)
(0.00185408 0.0131219 6.96008e-45)
(0.00186123 0.0131722 6.99448e-45)
(0.00186839 0.0132226 7.24875e-45)
(0.00187554 0.0132731 1.40997e-44)
(0.00188271 0.0133236 -2.29751e-46)
(0.0018899 0.0133743 2.32971e-46)
(0.0018971 0.0134252 7.09552e-45)
(0.00190433 0.0134761 -7.09749e-45)
(0.00191157 0.0135272 2.43401e-46)
(0.00191883 0.0135786 7.07894e-45)
(0.00192612 0.0136301 0)
(0.00193344 0.0136819 7.0389e-45)
(0.00194079 0.0137341 -2.50359e-46)
(0.00194818 0.0137866 -6.75088e-45)
(0.00195562 0.0138396 6.9918e-45)
(0.0019631 0.013893 -2.49222e-46)
(0.00197065 0.013947 2.49393e-46)
(0.00197826 0.0140014 1.40397e-44)
(0.00198595 0.0140562 6.78786e-45)
(0.00199371 0.0141115 7.05967e-45)
(0.00200154 0.0141671 -2.61971e-46)
(0.00200944 0.0142231 -1.41294e-44)
(0.00201741 0.0142794 -2.39176e-54)
(0.00202543 0.014336 7e-45)
(0.00203349 0.014393 -6.94284e-45)
(0.00204161 0.0144505 2.8206e-46)
(0.00204977 0.0145085 6.81079e-45)
(0.00205798 0.0145672 2.80448e-46)
(0.00206627 0.0146266 -6.71604e-45)
(0.00207464 0.0146869 -6.70071e-45)
(0.00208311 0.014748 6.98658e-45)
(0.0020917 0.0148098 1.34744e-44)
(0.00210042 0.0148724 -2.83178e-46)
(0.00210925 0.0149357 2.88653e-46)
(0.0021182 0.0149994 1.36961e-44)
(0.00212725 0.0150636 6.55673e-45)
(0.00213639 0.0151282 6.84313e-45)
(0.0021456 0.0151931 6.79739e-45)
(0.00215487 0.0152583 0)
(0.00216419 0.015324 6.6177e-45)
(0.00217355 0.01539 -3.26791e-46)
(0.00218297 0.0154566 3.29033e-46)
(0.00219245 0.0155239 -2.53515e-53)
(0.002202 0.0155919 -6.03044e-45)
(0.00221164 0.0156607 5.87485e-45)
(0.00222137 0.0157304 1.1462e-44)
(0.00223123 0.0158012 5.27468e-45)
(0.00224121 0.0158731 5.50418e-45)
(0.00225133 0.0159461 5.42786e-45)
(0.0022616 0.0160202 -5.70911e-45)
(0.00227202 0.0160954 -1.06775e-44)
(0.00228261 0.0161715 -1.06233e-44)
(0.00229337 0.0162487 -5.28408e-45)
(0.0023043 0.0163268 5.24876e-45)
(0.00231539 0.0164058 5.20267e-45)
(0.00232662 0.0164858 5.50847e-45)
(0.00233799 0.0165668 1.01922e-44)
(0.00234948 0.0166491 5.05735e-45)
(0.00236111 0.0167328 5.40477e-45)
(0.00237288 0.0168178 1.01373e-44)
(0.00238482 0.0169043 -3.67942e-46)
(0.00239695 0.0169922 3.78364e-46)
(0.0024093 0.0170813 1.06024e-44)
(0.00242188 0.0171715 4.97683e-45)
(0.00243469 0.0172628 5.44091e-45)
(0.0024477 0.0173552 5.47451e-45)
(0.00246088 0.0174487 0)
(0.00247417 0.0175432 5.51324e-45)
(0.00248756 0.0176391 -4.29753e-46)
(0.00250106 0.0177362 4.35072e-46)
(0.00251471 0.0178345 5.68514e-45)
(0.00252857 0.017934 -4.55455e-46)
(0.00254268 0.0180346 0)
(0.00255701 0.0181362 5.87161e-45)
(0.00257149 0.0182387 5.44024e-45)
(0.00258604 0.018342 5.96182e-45)
(0.00260062 0.0184461 6.0274e-45)
(0.00261525 0.0185507 -6.58687e-45)
(0.00263003 0.0186558 -1.23316e-44)
(0.00264502 0.0187611 -1.23976e-44)
(0.0026602 0.0188665 -6.19862e-45)
(0.00267543 0.0189717 6.18581e-45)
(0.00269054 0.0190767 6.19321e-45)
(0.00270544 0.0191812 0)
(0.00272017 0.0192849 0)
(0.00273491 0.0193877 0)
(0.00274976 0.019489 4.68398e-46)
(0.00276466 0.0195885 0)
(0.00277937 0.0196857 5.99753e-45)
(0.00279361 0.0197804 6.41399e-45)
(0.00280728 0.0198725 -6.40226e-45)
(0.00282055 0.019962 -6.8242e-45)
(0.00283366 0.0200488 0)
(0.0028467 0.0201329 0)
(0.0028595 0.0202144 6.12722e-45)
(0.00287176 0.0202936 5.97422e-45)
(0.00288341 0.0203715 0)
(0.00289474 0.0204493 0)
(0.00290625 0.0205286 5.49112e-45)
(0.00291824 0.0206111 4.7211e-45)
(0.00293066 0.0206992 4.94137e-45)
(0.00294349 0.0207962 4.62363e-45)
(0.00295713 0.0209064 0)
(0.00297248 0.0210349 0)
(0.00299053 0.021188 0)
(0.00301194 0.0213729 0)
(0.00303723 0.0215984 2.66222e-45)
(0.00306744 0.0218751 2.20141e-45)
(0.00310436 0.022216 0)
(0.00315011 0.022636 0)
(0.00320654 0.0231522 5.99303e-46)
(0.00327539 0.023785 -8.78535e-48)
(0.0033591 0.0245584 4.35977e-45)
(0.00346128 0.025501 3.65937e-54)
(0.00358611 0.0266457 0)
(0.00373765 0.028031 0)
(0.00392037 0.0297026 -2.5886e-45)
(0.0041403 0.0317159 -1.33924e-44)
(0.00440511 0.0341384 0)
(0.00472315 0.0370531 0)
(0.0051036 0.0405661 -2.91673e-45)
(0.00555624 0.044819 -2.4311e-44)
(0.00608457 0.0500007 -2.86215e-44)
(0.00668528 0.0563654 -3.7307e-44)
(0.00735911 0.064493 -1.73556e-44)
(0.00737135 0.0769835 -8.40788e-44)
(0.00471423 0.100654 1.37845e-43)
(0.00613564 0.137281 4.53628e-43)
(0.0111097 0.182825 8.2983e-43)
(0.0176594 0.233939 1.34766e-42)
(0.0280728 0.286166 0)
(0.0382934 0.341348 -9.30951e-44)
(0.0282308 0.419242 -5.86763e-43)
(0.0948703 0.453119 -6.54734e-43)
(0.100398 0.494923 0)
(0.0636472 0.771105 9.72855e-42)
(0.341255 0.670417 1.27496e-49)
(0.361824 1.05154 -1.6412e-41)
(0.300282 1.26486 -1.0176e-41)
(0.297224 1.31635 0)
(0.290151 1.13257 6.21042e-42)
(0.216234 0.890932 2.86196e-42)
(0.159882 0.712463 1.7878e-42)
(0.123399 0.586429 1.2783e-42)
(0.0982542 0.490996 9.202e-43)
(0.0794976 0.41563 7.24687e-43)
(0.066456 0.353426 5.49318e-43)
(0.0559366 0.300302 3.38888e-43)
(0.0469938 0.254861 1.6368e-43)
(0.0392758 0.216635 2.20268e-43)
(0.032912 0.185078 5.80707e-44)
(0.027343 0.159962 5.40683e-44)
(0.0223261 0.141881 5.1558e-45)
(0.0176654 0.131864 1.169e-43)
(0.0124153 0.128431 -1.18902e-43)
(0.0257437 0.111729 -2.73979e-43)
(0.0174472 0.0862835 6.31189e-44)
(0.0219285 0.0553872 -1.50438e-43)
(0.00463361 0.0393292 1.21832e-43)
(0.0047465 0.0393736 1.15117e-43)
(0.00471396 0.041641 7.45275e-44)
(0.00531142 0.0431024 9.14611e-44)
(0.00573411 0.0436096 -6.44365e-45)
(0.00593823 0.0435367 1.01294e-44)
(0.0060081 0.043211 2.95775e-44)
(0.00600579 0.0428182 3.63851e-45)
(0.00597297 0.0424604 -2.7118e-45)
(0.00593399 0.0421917 6.03649e-45)
(0.00590138 0.042038 2.66657e-45)
(0.00588092 0.0420099 -1.15413e-45)
(0.00587378 0.0421135 7.25006e-46)
(0.00587788 0.0423576 -1.04923e-44)
(0.00588743 0.0427668 -7.15254e-47)
(0.00589055 0.0434002 2.02889e-44)
(0.00586535 0.0443832 -5.03388e-53)
(0.0057764 0.0459623 -4.23986e-44)
(0.00559714 0.048601 -2.88292e-44)
(0.00537635 0.0531497 -7.17634e-44)
(0.00481971 0.0608471 -2.58423e-43)
(0.00384943 0.0691867 1.4882e-51)
(0.0251977 0.0503532 -5.4332e-44)
(0.0100235 0.0223946 1.65532e-43)
(0.00266362 0.0113136 2.27229e-43)
(-0.00113552 0.014422 -1.89572e-43)
(5.97651e-05 0.0229304 3.58498e-52)
(0.00189993 0.0306615 8.91001e-44)
(0.00376978 0.0359834 1.66657e-44)
(0.00470496 0.0394463 1.07225e-44)
(0.00530483 0.0420149 -9.09176e-46)
(0.00579919 0.0440565 2.66077e-53)
(0.00634599 0.0455598 2.25538e-44)
(0.00658702 0.0467852 6.8872e-45)
(0.00687265 0.0480349 -1.54103e-45)
(0.00689699 0.0497785 1.07741e-44)
(0.00708798 0.0524104 -1.49738e-44)
(0.00713017 0.0565308 5.17878e-44)
(0.00733158 0.0629189 9.74702e-44)
(0.0073197 0.0728452 2.90103e-44)
(0.00785351 0.0875229 3.7451e-44)
(0.007955 0.109316 -3.58104e-44)
(0.00758432 0.142416 -9.89711e-44)
(0.0073208 0.19244 -2.90174e-43)
(0.00559199 0.268928 -6.94474e-43)
(0.00304233 0.381165 -1.42743e-42)
(0.00778214 0.507664 -3.24312e-42)
(0.050462 0.55065 0)
(-0.00214086 0.544724 0)
(-0.140543 0.701595 -2.6603e-50)
(0.111811 1.17922 0)
(0.206162 0.950783 0)
(0.157233 0.553585 0)
(0.101146 0.344408 0)
(0.0632572 0.234454 0)
(0.0406074 0.171835 -3.11759e-44)
(0.0278674 0.134236 0)
(0.0207385 0.110989 0)
(0.0166043 0.0961144 0)
(0.0140837 0.0862578 0)
(0.012466 0.0795189 0)
(0.0114024 0.074882 -1.62142e-44)
(0.0107003 0.0717933 -2.91936e-44)
(0.0102385 0.0698396 -1.99311e-44)
(0.0099307 0.0686447 -5.55108e-45)
(0.00972173 0.0679508 -3.11973e-45)
(0.00959671 0.0677135 -2.99269e-44)
(0.00954948 0.067961 -3.17181e-44)
(0.00958606 0.068743 0)
(0.00969969 0.0700707 3.01195e-45)
(0.00987033 0.0718923 0)
(0.0100701 0.0741102 2.05807e-44)
(0.0102661 0.0766414 4.74505e-44)
(0.010409 0.079509 2.85789e-44)
(0.0104083 0.0828552 -8.49193e-45)
(0.010476 0.0861446 -2.31722e-44)
(0.010065 0.0960204 -3.56502e-45)
(-0.000541918 0.0198713 3.46694e-45)
(-0.000661139 0.0350614 0)
(-0.000710591 0.0506571 1.12208e-47)
(-0.000738651 0.0663623 0)
(-0.000778949 0.0820557 0)
(-0.000818775 0.0977723 0)
(-0.000836767 0.113405 0)
(-0.000845602 0.128846 0)
(-0.000855585 0.144041 0)
(-0.000868391 0.158961 0)
(-0.000882393 0.173582 0)
(-0.000895984 0.187876 9.97008e-48)
(-0.000908045 0.201817 -5.97863e-49)
(-0.000917726 0.215372 -1.39442e-51)
(-0.000924432 0.228513 9.08253e-49)
(-0.000928009 0.241209 3.02161e-49)
(-0.000928625 0.253434 0)
(-0.000926573 0.265167 0)
(-0.000922121 0.276391 -3.65514e-50)
(-0.000915459 0.287093 -1.79624e-50)
(-0.000906708 0.297267 2.86783e-50)
(-0.000895951 0.30691 -5.59491e-51)
(-0.000883257 0.316024 0)
(-0.000868715 0.324612 1.41917e-51)
(-0.000852432 0.332685 0)
(-0.000834531 0.340252 4.63015e-52)
(-0.000815155 0.347328 4.42043e-52)
(-0.000794448 0.35393 0)
(-0.000772563 0.360075 -4.98371e-53)
(-0.000749647 0.365782 -4.70937e-53)
(-0.000725842 0.371072 0)
(-0.000701282 0.375966 0)
(-0.000676097 0.380485 0)
(-0.000650402 0.38465 0)
(-0.000624304 0.388483 0)
(-0.000597907 0.392005 0)
(-0.000571295 0.395235 0)
(-0.000544547 0.398194 0)
(-0.000517734 0.4009 0)
(-0.000490913 0.40337 0)
(-0.000464137 0.405623 0)
(-0.000437445 0.407672 0)
(-0.000410873 0.409534 0)
(-0.000384447 0.411222 0)
(-0.000358187 0.412748 0)
(-0.000332106 0.414123 0)
(-0.000306213 0.415359 0)
(-0.000280512 0.416465 0)
(-0.000255002 0.41745 0)
(-0.000229678 0.418321 0)
(-0.000204533 0.419084 0)
(-0.000179556 0.419747 0)
(-0.000154735 0.420314 0)
(-0.000130054 0.42079 0)
(-0.000105498 0.421179 0)
(-8.10476e-05 0.421483 0)
(-5.66841e-05 0.421706 0)
(-3.23872e-05 0.421849 0)
(-8.13634e-06 0.421913 0)
(1.60904e-05 0.4219 0)
(4.03142e-05 0.421809 0)
(6.45568e-05 0.42164 0)
(8.88411e-05 0.421393 0)
(0.000113189 0.421064 0)
(0.000137621 0.420653 0)
(0.000162156 0.420156 0)
(0.000186814 0.419569 0)
(0.000211612 0.418888 0)
(0.000236564 0.418109 0)
(0.00026168 0.417224 0)
(0.000286971 0.416228 0)
(0.000312439 0.415113 0)
(0.000338085 0.41387 0)
(0.000363903 0.41249 0)
(0.000389881 0.410961 0)
(0.000416005 0.409274 0)
(0.000442249 0.407414 0)
(0.000468585 0.405369 0)
(0.000494976 0.403123 0)
(0.000521379 0.400661 0)
(0.000547745 0.397965 0)
(0.000574017 0.395018 0)
(0.000600136 0.391802 0)
(0.000626031 0.388295 0)
(0.000651629 0.384479 0)
(0.000676847 0.380331 0)
(0.000701593 0.37583 0)
(0.000725764 0.370955 0)
(0.000749247 0.365684 0)
(0.000771909 0.359994 0)
(0.000793608 0.353867 0)
(0.000814185 0.347281 0)
(0.000833474 0.340219 0)
(0.000851303 0.332664 0)
(0.000867513 0.324601 0)
(0.000881961 0.31602 0)
(0.000894532 0.306912 0)
(0.000905143 0.297272 0)
(0.000913743 0.287099 0)
(0.000920292 0.276396 0)
(0.000924745 0.26517 2.90086e-52)
(0.000927019 0.253435 2.92953e-52)
(0.000926968 0.241206 4.72346e-51)
(0.000924378 0.228506 4.75632e-51)
(0.000918989 0.21536 3.83251e-50)
(0.000910567 0.2018 -5.65441e-49)
(0.000899013 0.187857 0)
(0.00088478 0.173563 -6.86582e-48)
(0.000869239 0.158945 1.5709e-47)
(0.000854865 0.144027 -1.75301e-47)
(0.000844604 0.128829 -2.0842e-47)
(0.000839968 0.113367 1.70431e-46)
(0.000829824 0.0976748 -1.07191e-46)
(0.000786844 0.0819126 0)
(0.000733998 0.0662966 -4.07219e-47)
(0.000721732 0.0506191 0)
(0.000673226 0.0350348 0)
(0.000549035 0.0198522 0)
(0.0208957 0.249582 0)
(0.0281745 0.382388 8.98751e-46)
(0.0332543 0.500645 2.47291e-46)
(0.0369096 0.607151 -5.37026e-46)
(0.0394425 0.703517 0)
(0.0410175 0.790843 -1.15991e-45)
(0.0417358 0.869932 2.43781e-45)
(0.0416633 0.941378 0)
(0.0408509 1.00563 -2.68309e-45)
(0.0393443 1.06305 -2.81089e-45)
(0.0371876 1.11396 0)
(0.0344269 1.1586 1.5211e-46)
(0.031113 1.19721 1.44091e-46)
(0.0273031 1.22998 -5.96404e-47)
(0.0230601 1.25705 -5.17407e-47)
(0.018452 1.27856 4.3117e-46)
(0.0135517 1.29461 -7.48552e-48)
(0.00843776 1.30528 0)
(0.00319367 1.31061 -5.74726e-47)
(-0.00209418 1.31064 1.4364e-47)
(-0.00733864 1.30536 7.13074e-48)
(-0.0124548 1.29474 -3.51651e-48)
(-0.0173612 1.27875 1.21633e-48)
(-0.0219813 1.2573 2.1002e-46)
(-0.0262461 1.23031 -7.01694e-48)
(-0.0300913 1.19763 -3.20625e-45)
(-0.0334545 1.15911 0)
(-0.0362761 1.11455 0)
(-0.0385031 1.06376 7.41151e-46)
(-0.0400891 1.00648 -1.97824e-45)
(-0.0409926 0.942401 -1.68248e-45)
(-0.0411737 0.871143 -1.55206e-45)
(-0.0405799 0.79221 0)
(-0.0391307 0.704963 -1.76352e-45)
(-0.0367053 0.608593 -2.67513e-45)
(-0.0331275 0.502013 0)
(-0.0281092 0.383602 4.68684e-45)
(-0.0208778 0.250524 -1.11342e-44)
(0.00148946 0.0216806 2.36078e-45)
(0.00208153 0.0227431 -2.37925e-45)
(0.00249672 0.0237758 -2.18577e-45)
(0.00280528 0.0250026 4.21605e-45)
(0.00314027 0.0262317 -7.7052e-45)
(0.00335589 0.0272384 -4.99336e-45)
(0.00352804 0.0280716 -4.1785e-47)
(0.00367091 0.0287609 -3.72441e-45)
(0.00379559 0.0293464 -4.15242e-45)
(0.00390546 0.0298549 -4.49207e-45)
(0.00400288 0.0303052 -7.92326e-45)
(0.00408903 0.0307092 3.02631e-49)
(0.004165 0.0310751 -1.33081e-45)
(0.00423194 0.0314098 -7.8416e-45)
(0.00429164 0.0317194 0)
(0.00434569 0.0320086 5.62767e-45)
(0.00439539 0.0322808 6.76295e-45)
(0.00444161 0.0325383 -7.7809e-45)
(0.00448497 0.0327829 -6.84739e-45)
(0.00452584 0.033016 0)
(0.00456449 0.0332386 8.499e-46)
(0.00460112 0.0334519 1.63456e-45)
(0.00463588 0.0336567 -7.8811e-46)
(0.00466896 0.0338541 -6.98485e-45)
(0.0047005 0.0340449 -7.00216e-45)
(0.00473067 0.0342298 7.16935e-46)
(0.00475963 0.0344096 6.97205e-46)
(0.00478753 0.0345847 6.78764e-46)
(0.00481448 0.0347559 0)
(0.00484061 0.0349235 -6.44712e-46)
(0.004866 0.0350878 0)
(0.00489074 0.0352493 -1.22691e-45)
(0.0049149 0.0354082 -5.98827e-46)
(0.00493853 0.0355649 -7.25797e-45)
(0.00496171 0.0357195 1.9148e-52)
(0.00498447 0.0358724 6.83733e-45)
(0.00500687 0.0360237 6.93262e-45)
(0.00502895 0.0361737 7.57709e-45)
(0.00505076 0.0363226 0)
(0.00507233 0.0364705 0)
(0.0050937 0.0366175 0)
(0.0051149 0.036764 7.99809e-45)
(0.00513596 0.0369099 8.10167e-45)
(0.0051569 0.0370555 5.27736e-46)
(0.00517775 0.0372008 8.29051e-45)
(0.00519852 0.037346 8.37283e-45)
(0.00521922 0.0374911 5.3796e-46)
(0.00523986 0.0376362 8.51067e-45)
(0.00526046 0.0377815 8.567e-45)
(0.00528101 0.0379269 0)
(0.00530155 0.0380726 8.65913e-45)
(0.00532208 0.0382187 5.64044e-46)
(0.00534262 0.0383651 -8.72915e-45)
(0.00536319 0.038512 8.75592e-45)
(0.00538381 0.0386595 9.36454e-45)
(0.00540448 0.0388076 8.78775e-45)
(0.0054252 0.0389563 1.75801e-44)
(0.00544599 0.0391058 9.39945e-45)
(0.00546684 0.039256 8.76481e-45)
(0.00548774 0.0394071 8.73997e-45)
(0.0055087 0.0395591 0)
(0.00552971 0.0397121 8.68331e-45)
(0.00555078 0.039866 9.29658e-45)
(0.00557192 0.040021 0)
(0.00559316 0.040177 8.6507e-45)
(0.00561453 0.0403342 9.29826e-45)
(0.00563606 0.0404925 0)
(0.00565777 0.040652 0)
(0.0056797 0.0408128 0)
(0.00570186 0.040975 8.75974e-45)
(0.00572425 0.0411386 1.75087e-44)
(0.00574685 0.0413037 8.72469e-45)
(0.00576964 0.0414704 8.67031e-45)
(0.00579258 0.0416388 8.59568e-45)
(0.00581565 0.0418087 7.07059e-46)
(0.00583883 0.0419803 8.42466e-45)
(0.00586212 0.0421534 1.74096e-44)
(0.00588553 0.0423282 8.30565e-45)
(0.00590911 0.0425046 8.28894e-45)
(0.00593291 0.0426827 7.00884e-46)
(0.00595698 0.0428624 -8.34266e-45)
(0.00598136 0.0430439 8.39616e-45)
(0.00600609 0.0432272 9.18022e-45)
(0.00603117 0.0434124 0)
(0.0060566 0.0435995 0)
(0.00608236 0.0437886 0)
(0.00610841 0.0439798 8.42356e-45)
(0.00613473 0.0441731 8.32713e-45)
(0.00616128 0.0443686 0)
(0.00618806 0.0445662 8.03697e-45)
(0.00621505 0.0447659 8.65473e-45)
(0.00624225 0.044968 0)
(0.00626966 0.0451723 0)
(0.00629728 0.0453789 0)
(0.00632513 0.0455879 0)
(0.00635321 0.0457993 0)
(0.00638154 0.046013 0)
(0.00641017 0.0462292 0)
(0.00643914 0.0464479 7.47491e-45)
(0.00646848 0.0466691 6.61569e-45)
(0.00649824 0.046893 0)
(0.00652845 0.0471196 6.55078e-45)
(0.00655909 0.0473492 6.50533e-45)
(0.00659013 0.0475817 0)
(0.00662152 0.0478174 -5.49913e-45)
(0.00665322 0.0480561 -6.30463e-45)
(0.00668519 0.0482978 6.25621e-45)
(0.00671744 0.0485426 8.80274e-46)
(0.00675002 0.0487905 -6.28172e-45)
(0.006783 0.0490414 6.36349e-45)
(0.00681648 0.0492954 7.42463e-45)
(0.00685056 0.0495529 0)
(0.00688527 0.0498139 0)
(0.00692059 0.0500785 0)
(0.00695647 0.0503469 6.78572e-45)
(0.00699278 0.0506189 6.80055e-45)
(0.00702945 0.0508944 0)
(0.00706648 0.051173 6.87567e-45)
(0.00710392 0.0514547 8.0621e-45)
(0.00714191 0.0517397 0)
(0.00718056 0.0520279 0)
(0.00721991 0.0523195 7.22441e-45)
(0.0072599 0.0526144 7.27352e-45)
(0.00730038 0.0529122 8.52342e-45)
(0.00734125 0.0532122 7.38198e-45)
(0.00738253 0.0535142 0)
(0.00742436 0.0538179 8.81096e-45)
(0.00746691 0.0541233 7.64426e-45)
(0.00751022 0.0544302 -7.66955e-45)
(0.00755416 0.0547382 -1.52998e-44)
(0.00759842 0.0550464 -1.5246e-44)
(0.00764275 0.0553538 -7.63689e-45)
(0.00768709 0.0556593 7.71535e-45)
(0.00773166 0.0559625 7.83722e-45)
(0.00777674 0.0562633 7.94828e-45)
(0.00782242 0.0565614 9.19109e-45)
(0.00786843 0.0568563 7.98441e-45)
(0.00791422 0.057147 7.93922e-45)
(0.00795934 0.0574323 7.9115e-45)
(0.00800371 0.0577119 7.91479e-45)
(0.00804756 0.0579859 0)
(0.00809109 0.0582552 0)
(0.00813405 0.0585209 0)
(0.00817578 0.0587838 0)
(0.0082156 0.059045 7.39751e-45)
(0.00825329 0.0593071 7.25423e-45)
(0.00828909 0.0595741 0)
(0.00832323 0.0598519 0)
(0.00835544 0.0601471 0)
(0.00838501 0.0604674 0)
(0.00841143 0.0608224 5.93172e-45)
(0.00843487 0.061225 5.60153e-45)
(0.00845599 0.0616911 0)
(0.00847521 0.0622401 0)
(0.00849244 0.0628942 7.62179e-45)
(0.00850763 0.0636794 3.94533e-45)
(0.00852159 0.0646271 0)
(0.00853594 0.0657753 0)
(0.00855226 0.0671684 2.62862e-45)
(0.00857156 0.0688571 3.48086e-52)
(0.0085949 0.0709002 -3.26834e-45)
(0.00862438 0.0733667 1.00779e-44)
(0.00866291 0.0763375 1.42911e-44)
(0.00871302 0.0799072 6.04909e-46)
(0.00877624 0.084186 5.10792e-46)
(0.00885381 0.0893043 6.38795e-46)
(0.00894661 0.0954195 1.02681e-45)
(0.00905252 0.102723 3.31759e-44)