/*--------------------------------*- C++ -*----------------------------------*\
| =========                 |                                                 |
| \\      /  F ield         | OpenFOAM: The Open Source CFD Toolbox           |
|  \\    /   O peration     | Version:  2.2.1                                 |
|   \\  /    A nd           | Web:      www.OpenFOAM.org                      |
|    \\/     M anipulation  |                                                 |
\*---------------------------------------------------------------------------*/
FoamFile
{
    version     2.0;
    format      ascii;
    class       volScalarField;
    location    "1.5e-05";
    object      alpha1;
}
// * * * * * * * * * * * * * * * * * * * * * * * * * * * * * * * * * * * * * //

dimensions      [0 0 0 0 0 0 0];

internalField   nonuniform List<scalar> 
22464
(
0.997777
0.999918
0.999944
0.999764
0.999691
0.999691
0.999713
0.999693
0.999687
0.999687
0.999674
0.999663
0.999663
0.99974
0.999765
0.999721
0.999706
0.999706
0.999706
0.999727
0.999791
0.999748
0.99973
0.99973
0.99973
0.999749
0.999878
0.999849
0.999786
0.999786
0.999786
0.999923
0.999987
0.999915
0.999627
0.999501
0.999501
0.999501
0.999501
0.999609
0.999662
0.999577
0.999625
0.99994
0.999995
0.999998
0.999997
0.999858
0.997444
0.989127
0.986745
0.989733
0.999147
0.99998
0.999999
1
1
1
0.999995
0.997649
0.907937
0.41812
0.0544628
0.0186831
0.00667584
0.00523694
0.00425268
0.00351214
0.00323385
0.00293286
0.00270002
0.00252614
0.00237595
0.00225656
0.00215658
0.002068
0.00198398
0.00190034
0.00182214
0.001749
0.0016861
0.00163491
0.00160088
0.00158729
0.00159254
0.001626
0.0016473
0.00168687
0.00176151
0.00217815
0.00292506
0.00356595
0.00364816
0.00345248
0.00233772
0.00169272
0.00118563
0.000859099
0.000639487
0.000479971
0.000375708
0.000280809
0.00020359
0.000137873
8.54295e-05
4.62099e-05
2.01307e-05
6.1631e-06
1.05941e-06
6.47853e-08
2.69994e-10
2.27062e-14
2.98011e-19
1.10296e-24
9.1848e-29
4.44792e-34
7.88126e-40
3.12733e-46
8.09262e-54
6.24536e-92
4.38905e-78
3.94603e-91
5.43929e-116
5.43987e-116
1.22394e-119
1.71916e-128
1.06024e-136
-1.10935e-160
-3.37526e-142
-9.84461e-145
-2.28847e-147
-4.23025e-150
-6.21068e-153
-7.17164e-156
-6.49145e-159
-4.55104e-162
-2.42635e-165
-9.80843e-169
-2.97772e-172
-6.73111e-176
-1.08605e-179
-1.13274e-183
-6.54803e-188
-1.3706e-192
-3.96903e-198
-1.39873e-223
-1.93526e-232
0
0
0
0
0
0
0
0
0
0
0
0
0
0
0
0
0
0
0
0
0
0
0
0
0
0
0
0
0
0
0
0
0
0
0
0
0
0
0
0
0
0
0
0
0
0
0
0
0
0
0
0
0
0
0
0
0
0
0
0
0
0
0
0
0
0
0
0
0
0
0
0
0
0
0
0
0
0
0
0
0
0
0
0
0
0
0
0
0
0
0
0
0
0
0
0
0
0
0
0
0
0
0
0
0
0
0
0
0
0
0
0
0
0
0
0
0
0
0
0
0
0
0
0
0
0
0
0
0
0
0
0
0
0
0
0
0
0
0
0
0
0
0
0
0
0
0
0
0
0
0
0
0
0
0
0
0
0
0
0
0
0
0
0
0
0
0
0
0
0
0
0
0
0
0
0
0
0
0
0
0
0
0
0
0
0
0
0
0
0
0
0
0
0
0
0
0
0
0
0
0
0
0
0
0
0
0
0
0
0
0
0
0
0
0
0
0
0
0
0
0
0
0
0
0
0
0
0
0
0
0
0
0
0
0
0
0
0
0
0
0
0
0
0
0
0
0
0
0
0
0
0
0
0
0
0
0
0
0
0
0
0
0
0
0
0
0
0
0
0
0
0
0
0
0
0
0
-9.04157e-214
-1.70322e-195
-1.04884e-189
-5.88768e-185
-1.15053e-180
-1.19049e-176
-7.8531e-173
-3.71524e-169
-1.32254e-165
-3.59494e-162
-7.44872e-159
-1.18441e-155
-1.4777e-152
-1.4549e-149
-1.13869e-146
-7.16191e-144
-3.63943e-141
-1.49978e-138
-4.87692e-136
8.53671e-139
1.43366e-128
7.79231e-120
1.35283e-114
1.26392e-134
2.01455e-90
1.31305e-78
6.72245e-88
5.88198e-54
2.48625e-46
6.63075e-40
3.84747e-34
8.0896e-29
1.00516e-24
2.79623e-19
2.07355e-14
2.53009e-10
6.27082e-08
1.0408e-06
6.09323e-06
1.99728e-05
4.59442e-05
8.50498e-05
0.000137373
0.000202993
0.000280099
0.000374869
0.000478953
0.00063759
0.00085624
0.0011791
0.00168192
0.00231846
0.00343486
0.0036374
0.00355998
0.00292684
0.00218504
0.00176439
0.00168877
0.00164729
0.00162706
0.00159279
0.00158855
0.00160108
0.00163506
0.00168535
0.00174797
0.00182097
0.00189941
0.00198368
0.00206845
0.00215705
0.00225753
0.00237615
0.00252519
0.00269862
0.00293672
0.00324214
0.00351751
0.00427144
0.00523763
0.00676622
0.0193504
0.0580068
0.439806
0.915991
0.998006
0.999996
1
1
1
0.999998
0.999978
0.999082
0.989552
0.986703
0.989348
0.997541
0.999867
0.999997
0.999998
0.999995
0.99994
0.99962
0.999571
0.999653
0.999611
0.999503
0.999503
0.999503
0.999503
0.999631
0.999917
0.999986
0.999914
0.999785
0.999785
0.999785
0.999846
0.999876
0.999746
0.999729
0.999729
0.999729
0.999746
0.999792
0.999722
0.999702
0.999702
0.999702
0.999715
0.999727
0.999718
0.999718
0.999705
0.999636
0.999632
0.999632
0.999635
0.999668
0.999668
0.999722
0.999873
0.999941
0.999894
0.995517
0
0
0
0
0
0
0
0
0
0
0
0
0
0
0
0
0
0
0
0
0
0
0
0
0
0
0
0
0
0
0
0
0
0
0
0
0
0
0
0
0
0
0
0
0
0
0
0
0
0
0
0
0
0
0
0
0
0
0
0
0
0
0
0
0
0
0
0
0
0
0
0
0
0
0
0
0
0
0
0
0
0
0
0
0
0
0
0
0
0
0
0
0
0
0
0
0
0
0
0
0
0
0
0
0
0
0
0
0
0
0
0
0
0
0
0
0
0
0.998568
0.999856
0.99992
0.999796
0.999812
0.999926
0.999967
0.999981
0.999988
0.999991
0.999995
0.999997
0.999998
0.999999
0.999999
0.999999
0.999999
0.999999
0.999999
0.999998
0.999998
0.999998
0.999998
0.999998
0.999997
0.999997
0.999997
0.999997
0.999995
0.999994
0.999992
0.999988
0.99998
0.99998
0.999972
0.999932
0.999655
0.998284
0
0
0
0
0
0
0
0
0
0
0
0
0
0
0
0
0
0
0
0
0
0
0
0
0
0
0
0
0
0
0
0
0
0
0
0
0
0
0
0
0
0
0
0
0
0
0
0
0
0
0
0
0
0
0
0
0
0
0
0
0
0
0
0
0
0
0
0
0
0
0
0
0
0
0
0
0
0
0
0
0
0
0
0
0
0
0
0
0
0
0
0
0
0
0
0
0
0
0
0
0
0
0
0
0
0
0
0
0
0
0
0
0
0
0
0
0
0
0
0
0
0
0
0
0
0
0
0
0
0
0
0
0
0
0
0
0
0
-1.07915e-216
-6.46196e-194
-5.54331e-188
-3.13732e-183
-5.83158e-179
-5.46514e-175
-3.20092e-171
-1.33963e-167
-4.28216e-164
-1.06991e-160
-2.0826e-157
-3.14646e-154
-3.73576e-151
-3.48339e-148
-2.55774e-145
-1.48969e-142
-6.89858e-140
-2.54443e-137
-6.94231e-135
2.48804e-131
2.24735e-123
2.61505e-115
4.16892e-108
4.94234e-117
4.52726e-89
2.20857e-76
1.61995e-88
3.21844e-52
5.49121e-45
7.07974e-39
2.04215e-33
2.10084e-28
4.17573e-25
3.56229e-23
5.93594e-21
1.02488e-16
8.11381e-14
1.47409e-12
1.23171e-11
6.31405e-11
2.25109e-10
6.07123e-10
1.35261e-09
2.79395e-09
5.9328e-09
1.43524e-08
3.76384e-08
1.08527e-07
8.71633e-07
1.51643e-05
6.48964e-05
5.22741e-05
0.000138192
7.95492e-05
0.000272073
0.000249612
0.000324748
0.000404478
0.00034978
0.000220871
0.000137538
9.28596e-05
6.68993e-05
5.05046e-05
4.10224e-05
3.54627e-05
3.2247e-05
3.09901e-05
3.10577e-05
3.30456e-05
3.91284e-05
4.94828e-05
6.12018e-05
7.15169e-05
8.16361e-05
9.23636e-05
0.000109243
0.000138892
0.000179152
0.00029991
0.000315587
0.000196751
0.000555925
0.000704393
0.0159558
0.298115
0.846032
0.992313
0.999937
1
1
1
0.999999
0.999975
0.999528
0.997801
0.990441
0.989382
0.98937
0.995562
0.999499
0.999988
0.999996
0.999994
0.999993
0.999994
0.999993
0.99999
0.999986
0.999981
0.999979
0.99998
0.999981
0.999982
0.999984
0.999987
0.99999
0.999993
0.999995
0.999996
0.999996
0.999996
0.999996
0.999996
0.999996
0.999996
0.999996
0.999996
0.999995
0.999995
0.999995
0.999995
0.999995
0.999995
0.999994
0.999994
0.999993
0.999993
0.999992
0.999992
0.999993
0.999993
0.999994
0.999997
0.999999
1
0.999998
0.999997
0.999996
0.999996
0.999996
0.999996
0.999996
0.999996
0.999996
0.999996
0.999996
0.999996
0.999995
0.999995
0.999995
0.999996
0.999996
0.999996
0.999996
0.999996
0.999996
0.999996
0.999996
0.999996
0.999996
0.999995
0.999993
0.99999
0.999987
0.999984
0.999982
0.999981
0.999981
0.999979
0.999982
0.999987
0.999991
0.999994
0.999994
0.999993
0.999994
0.999996
0.999986
0.999435
0.99523
0.989368
0.989363
0.99076
0.997965
0.999536
0.999975
0.999999
1
1
1
0.99992
0.991042
0.83208
0.274954
0.013788
0.000663468
0.000527869
0.000189456
0.000309386
0.000287233
0.000177672
0.000140938
0.000110989
9.28321e-05
8.14023e-05
7.12356e-05
6.07836e-05
4.89927e-05
3.88039e-05
3.2852e-05
3.09162e-05
3.08625e-05
3.21343e-05
3.53294e-05
4.07911e-05
5.00313e-05
6.58464e-05
9.10707e-05
0.000134367
0.000217643
0.000346666
0.000403288
0.000322927
0.00024742
0.000271868
8.0227e-05
0.000139714
5.35284e-05
6.47584e-05
1.55289e-05
8.41615e-07
1.108e-07
3.83175e-08
1.44529e-08
5.90058e-09
2.75247e-09
1.331e-09
6.017e-10
2.25897e-10
6.42734e-11
1.27259e-11
1.54681e-12
8.65218e-14
1.05717e-16
6.17351e-21
3.79099e-23
4.5849e-25
2.4155e-28
2.39525e-33
8.54813e-39
6.99241e-45
4.46258e-52
5.57765e-92
8.61756e-76
9.73265e-90
5.64188e-98
5.44044e-116
4.76471e-115
2.85275e-123
3.3321e-131
8.23592e-139
-5.74692e-141
-1.88056e-143
-4.79984e-146
-9.58515e-149
-1.50013e-151
-1.82836e-154
-1.73635e-157
-1.27648e-160
-7.19058e-164
-3.12334e-167
-1.04114e-170
-2.63028e-174
-4.76191e-178
-5.49126e-182
-3.38257e-186
-7.08291e-191
-1.63926e-196
-3.65137e-228
-4.59944e-237
0
0
0
0
0
0
0
0
0
0
0
0
0
0
0
0
0
0
0
0
0
0
0
0
0
0
0
0
0
0
0
0
0
0
0
0
0
0
0
0
0
0
0
0
0
0
0
0
0
0
0
0
0
0
0
0
0
0
0
0
0
0
0
0
0
0
0
0
0
0
0
0
0
0
0
0
0
0
0
0
0
0
0
0
0
0
0
0
0
0
0
0
0
0
0
0
0
0
0
0
0
0
0
0
0
0
0
0
0
0
0
0
0
0
0
0
0
0
0
0
0
0
0
0
0
0
0
0
0
0
0
0
0
0
0
0
0
0
0
0
0
0
0
0
0
0
0
0
0
0
0
0
0
0
0
0
0
0
0
0
0
0
0
0
0
0
0
0
0
0
0
0
0
0
0
0
0
0
0
0
0
0
0
0
0
0
0
0
0
0
0
0
0
0
0
0
0
0
0
0
0
0
0
0
0
0
0
0
0
0
0
0
0
0
0
0
0
0
0
0
0
0
0
0
0
0
0
0
0
0
0
0
0
0
0
0
0
0
0
0
0
0
0
0
0
0
0
0
0
0
0
0
0
1
1
1
1
1
1
1
1
1
1
1
1
1
1
1
1
1
1
1
1
1
1
1
1
1
1
1
1
1
1
1
1
1
1
1
1
0
0
0
0
0
0
0
0
0
0
0
0
0
0
0
0
0
0
0
0
0
0
0
0
0
0
0
0
0
0
0
0
0
0
0
0
0
0
0
0
0
0
0
0
0
0
0
0
0
0
0
0
0
0
0
0
0
0
0
0
0
0
0
0
0
0
0
0
0
0
0
0
0
0
0
0
0
0
0
0
0
0
0
0
0
0
0
0
0
0
0
0
0
0
0
0
0
0
0
0
0
0
0
0
0
0
0
0
0
0
0
0
0
0
0
0
1
1
1
1
1
1
1
1
1
1
1
1
1
1
1
1
1
1
1
1
1
1
1
1
1
1
1
1
1
1
1
1
1
1
1
1
1
1
1
1
0.999994
0.999898
0.999143
0.997252
0.995835
0.996549
0.998072
0.998664
0.99991
0.999998
1
1
1
0.999997
0.999286
0.969181
0.692633
0.157097
0.00833983
0.000362223
1.10545e-05
5.12569e-07
4.22234e-08
6.68171e-09
1.52996e-09
3.98261e-10
1.32819e-10
5.51585e-11
2.84292e-11
1.7281e-11
1.1347e-11
7.48738e-12
5.1671e-12
4.0048e-12
3.65213e-12
3.68458e-12
3.95069e-12
4.49453e-12
5.13767e-12
5.82809e-12
8.89052e-12
4.47895e-10
2.24965e-08
3.0406e-07
1.56683e-06
3.81721e-06
5.34757e-06
2.99401e-06
9.15304e-07
3.26962e-07
7.36765e-09
9.79802e-09
1.99517e-09
6.30683e-09
1.02865e-10
7.02953e-14
3.86305e-14
1.68683e-14
7.51693e-15
3.08143e-15
1.13129e-15
3.61693e-16
9.98584e-17
2.29456e-17
4.25302e-18
6.66549e-19
8.1468e-20
8.76418e-21
8.75341e-22
6.37663e-23
2.36093e-24
2.4131e-26
1.63915e-29
2.79971e-34
1.71152e-39
2.41718e-45
2.81822e-52
4.16919e-74
3.56576e-76
3.20341e-89
8.84002e-96
1.32703e-104
2.51136e-113
7.22388e-121
1.54754e-128
5.29941e-136
2.94149e-143
-3.07858e-146
-1.49951e-148
-7.89034e-151
-3.58583e-153
-1.19611e-155
-2.84199e-158
-4.80066e-161
-5.73454e-164
-4.76641e-167
-2.6925e-170
-1.01847e-173
-2.45813e-177
-3.42393e-181
-2.31583e-185
-4.73995e-190
-6.65735e-196
-2.31436e-232
-2.58893e-241
0
0
0
0
0
0
0
0
0
0
0
0
0
0
0
0
0
0
0
0
0
0
0
0
0
0
0
0
0
0
0
0
0
0
0
0
0
0
0
0
0
0
0
0
0
0
0
0
0
0
0
0
0
0
0
0
0
0
0
0
0
0
0
0
0
0
0
0
0
0
0
0
0
0
0
0
0
0
0
0
0
0
0
0
0
0
0
0
0
0
0
0
0
0
0
0
0
0
0
0
0
0
0
0
0
0
0
0
0
0
0
0
0
0
0
0
0
0
0
0
0
0
0
0
0
0
0
0
0
0
0
0
0
0
0
0
0
0
0
0
0
0
0
0
0
0
0
0
0
0
0
0
0
0
0
0
0
0
0
0
0
0
0
0
0
0
0
0
0
0
0
0
0
0
0
0
0
0
0
0
0
0
0
0
0
0
0
0
0
0
0
0
0
0
0
0
0
0
0
0
0
0
0
0
0
0
0
0
0
0
0
0
0
0
0
0
0
0
0
0
0
0
0
0
0
0
0
0
0
0
0
0
0
0
0
0
0
0
0
0
0
0
0
0
0
0
0
0
0
0
0
0
0
0
0
0
0
0
0
0
0
0
0
0
0
0
0
0
0
0
0
-7.79099e-220
-2.00318e-193
-3.84243e-187
-2.27177e-182
-3.96206e-178
-3.15675e-174
-1.43529e-170
-4.14937e-167
-8.03976e-164
-1.06274e-160
-9.85836e-158
-6.56423e-155
-3.15824e-152
-1.10679e-149
-2.91997e-147
-6.51545e-145
-1.60121e-142
-1.64915e-140
4.11593e-136
1.14825e-128
5.51012e-121
1.89312e-113
1.22529e-104
7.97968e-96
1.45791e-88
8.93557e-77
1.94822e-72
2.00313e-52
1.87947e-45
1.39993e-39
2.3591e-34
1.41077e-29
2.18036e-26
2.19221e-24
5.9712e-23
8.24036e-22
8.33154e-21
7.8775e-20
6.55261e-19
4.23444e-18
2.30507e-17
1.01007e-16
3.67853e-16
1.15566e-15
3.15773e-15
7.7155e-15
1.73003e-14
3.94217e-14
7.15022e-14
8.9078e-11
6.56363e-09
1.92718e-09
9.59755e-09
7.54764e-09
3.31333e-07
9.35505e-07
3.03144e-06
5.41735e-06
3.9059e-06
1.6205e-06
3.14422e-07
2.24956e-08
4.08523e-10
8.43919e-12
5.79493e-12
5.11421e-12
4.46331e-12
3.91658e-12
3.6556e-12
3.6277e-12
3.99551e-12
5.18834e-12
7.55449e-12
1.14785e-11
1.75106e-11
2.89631e-11
5.67484e-11
1.36391e-10
4.05557e-10
1.58152e-09
7.15274e-09
4.69424e-08
5.78498e-07
1.25577e-05
0.000413966
0.00948208
0.173243
0.717111
0.973431
0.999433
0.999998
1
1
1
0.999998
0.999893
0.998624
0.998027
0.996413
0.995943
0.997286
0.999205
0.999913
0.999995
1
1
1
1
1
1
1
1
1
1
1
1
1
1
1
1
1
1
1
1
1
1
1
1
1
1
1
1
1
1
1
1
1
1
1
1
1
1
1
1
1
1
1
1
1
1
1
1
1
1
1
1
1
1
1
1
1
1
1
1
1
1
1
1
1
1
1
1
1
1
1
1
1
1
1
1
1
1
1
1
1
1
1
1
1
1
1
1
1
1
1
1
1
1
1
1
1
1
1
1
1
1
1
1
1
1
1
1
1
1
1
0.999998
0.999991
0.999973
0.999911
0.99975
0.999579
0.999565
0.999832
0.999939
0.999974
0.999999
1
1
1
0.999981
0.997237
0.92683
0.520279
0.0814479
0.00640033
0.000243995
6.93961e-06
1.4182e-07
3.45244e-09
1.22606e-10
8.52523e-12
9.22086e-13
1.26385e-13
2.92072e-14
1.75066e-14
1.75047e-14
2.30719e-14
3.20401e-14
4.13104e-14
5.05781e-14
6.0569e-14
7.2719e-14
8.9288e-14
1.12608e-13
1.4358e-13
1.80767e-13
2.20048e-13
2.5763e-13
3.03733e-13
5.06341e-13
5.25995e-12
7.51585e-11
5.04231e-10
1.1368e-09
5.01277e-10
4.59467e-11
2.95104e-12
3.85855e-14
2.31705e-14
1.121e-14
5.33441e-15
2.37831e-15
1.03243e-15
4.41997e-16
1.8628e-16
7.58168e-17
2.8667e-17
9.88539e-18
3.08474e-18
8.64364e-19
2.13773e-19
4.55409e-20
8.10349e-21
1.15876e-21
1.26846e-22
9.99369e-24
5.21044e-25
1.55701e-26
1.62674e-28
1.25913e-31
3.28143e-36
3.0221e-41
6.49534e-47
1.50634e-53
5.52982e-75
5.51878e-75
2.75677e-94
2.75146e-94
3.10324e-105
7.92346e-113
3.31169e-120
7.56716e-128
4.0504e-135
2.75717e-142
2.09466e-149
-4.69342e-151
-1.16807e-152
-1.1791e-154
-6.90905e-157
-2.62021e-159
-6.66386e-162
-1.14807e-164
-1.32847e-167
-1.01013e-170
-4.87328e-174
-1.42305e-177
-2.24848e-181
-1.48942e-185
-1.93591e-190
-2.38814e-199
-2.55887e-236
-2.51338e-245
0
0
0
0
0
0
0
0
0
0
0
0
0
0
0
0
0
0
0
0
0
0
0
0
0
0
0
0
0
0
0
0
0
0
0
0
0
0
0
0
0
0
0
0
0
0
0
0
0
0
0
0
0
0
0
0
0
0
0
0
0
0
0
0
0
0
0
0
0
0
0
0
0
0
0
0
0
0
0
0
0
0
0
0
0
0
0
0
0
0
0
0
0
0
0
0
0
0
0
0
0
0
0
0
0
0
0
0
0
0
0
0
0
0
0
0
0
0
0
0
0
0
0
0
0
0
0
0
0
0
0
0
0
0
0
0
0
0
0
0
0
0
0
0
0
0
0
0
0
0
0
0
0
0
0
0
0
0
0
0
0
0
0
0
0
0
0
0
0
0
0
0
0
0
0
0
0
0
0
0
0
0
0
0
0
0
0
0
0
0
0
0
0
0
0
0
0
0
0
0
0
0
0
0
0
0
0
0
0
0
0
0
0
0
0
0
0
0
0
0
0
0
0
0
0
0
0
0
0
0
0
0
0
0
0
0
0
0
0
0
0
0
0
0
0
0
0
0
0
0
0
0
0
0
0
0
0
0
0
0
0
0
0
0
0
0
0
0
0
0
0
0
0
0
0
0
0
0
0
0
0
0
0
0
0
0
0
0
0
0
0
0
0
0
0
0
0
0
0
0
0
0
0
0
0
0
0
0
0
0
0
0
0
0
0
0
0
0
0
0
0
0
0
0
0
0
0
0
0
0
0
0
0
0
0
0
0
0
0
0
0
0
0
0
0
0
0
0
0
0
0
0
0
0
0
0
0
0
0
0
0
0
0
0
0
0
0
0
0
0
0
0
0
0
0
0
0
0
0
0
0
0
0
-8.96001e-223
-7.112e-197
-1.58513e-187
-1.69263e-182
-3.07117e-178
-2.21041e-174
-8.43052e-171
-1.93847e-167
-2.83944e-164
-2.73252e-161
-1.78243e-158
-7.99817e-156
-2.46801e-153
-5.15283e-151
-7.00796e-149
-5.79965e-147
-3.92873e-145
2.01194e-142
3.10843e-135
5.53591e-128
2.46632e-120
5.73193e-113
1.96372e-105
2.5875e-94
2.59251e-94
2.05283e-75
2.05694e-75
1.07748e-53
5.00135e-47
2.44146e-41
2.73211e-36
1.0716e-31
1.45615e-28
1.4287e-26
4.83225e-25
9.32842e-24
1.18912e-22
1.08988e-21
7.6444e-21
4.3084e-20
2.02792e-19
8.21871e-19
2.93798e-18
9.4255e-18
2.7364e-17
7.24853e-17
1.78418e-16
4.24e-16
9.91894e-16
2.28793e-15
5.13947e-15
1.08115e-14
2.23179e-14
3.76701e-14
3.09333e-12
4.8156e-11
5.14962e-10
1.18321e-09
5.38333e-10
8.17351e-11
5.55945e-12
4.95151e-13
2.94712e-13
2.49961e-13
2.1338e-13
1.75139e-13
1.38999e-13
1.08922e-13
8.62998e-14
7.02727e-14
5.85504e-14
4.89017e-14
3.99375e-14
3.09567e-14
2.2299e-14
1.71449e-14
1.73387e-14
2.96997e-14
1.31658e-13
9.97035e-13
9.58238e-12
1.41622e-10
3.99996e-09
1.63557e-07
8.03764e-06
0.000279199
0.00727176
0.0914837
0.55153
0.936577
0.997809
0.999986
1
1
1
0.999998
0.999974
0.999937
0.99982
0.999556
0.999583
0.999762
0.999916
0.999974
0.999992
0.999998
1
1
1
1
1
1
1
1
1
1
1
1
1
1
1
1
1
1
1
1
1
1
1
1
1
1
1
1
1
1
1
1
1
1
1
1
1
1
1
1
1
1
1
1
1
1
1
1
1
1
1
1
1
1
1
1
1
1
1
1
1
1
1
1
1
1
1
1
1
0
1
1
1
1
1
1
1
1
1
1
1
1
1
1
1
1
1
1
1
1
1
1
1
1
1
1
1
1
1
1
1
1
1
1
1
1
0.999999
0.999997
0.999995
0.999993
0.999994
0.999994
0.999995
0.999999
1
1
1
1
1
0.999938
0.993627
0.874276
0.377856
0.044777
0.00388852
0.000198922
7.02508e-06
1.54904e-07
2.35405e-09
3.51315e-11
9.85197e-13
7.1655e-14
8.44215e-15
2.23715e-15
1.70604e-15
2.11349e-15
3.62247e-15
5.11874e-15
6.41723e-15
7.76279e-15
9.34742e-15
1.14829e-14
1.47783e-14
1.98796e-14
2.68008e-14
3.49008e-14
4.32563e-14
5.05533e-14
5.53907e-14
5.72507e-14
5.648e-14
5.22618e-14
4.87893e-14
4.21541e-14
3.22903e-14
2.19982e-14
1.2902e-14
7.32368e-15
3.84587e-15
1.8914e-15
8.63598e-16
3.69728e-16
1.47028e-16
5.47569e-17
1.91745e-17
6.33488e-18
1.97412e-18
5.75983e-19
1.55879e-19
3.85995e-20
8.61381e-21
1.70119e-21
2.90863e-22
4.18993e-23
4.91723e-24
4.50459e-25
3.03514e-26
1.36735e-27
3.42858e-29
2.9632e-31
2.04748e-34
7.37647e-39
9.38129e-44
2.9076e-49
1.00646e-55
3.80921e-63
4.44877e-86
4.4359e-86
2.71382e-98
1.64746e-105
3.74683e-113
6.44307e-121
2.49172e-128
2.33207e-135
1.48223e-142
1.30863e-149
-6.41738e-154
-1.35269e-154
-2.45343e-156
-2.00518e-158
-1.0028e-160
-3.26311e-163
-7.01256e-166
-9.87738e-169
-8.86159e-172
-4.83099e-175
-1.49836e-178
-2.22449e-182
-1.13101e-186
-3.0081e-192
-8.89006e-203
-4.33446e-240
-3.70704e-249
0
0
0
0
0
0
0
0
0
0
0
0
0
0
0
0
0
0
0
0
0
0
0
0
0
0
0
0
0
0
0
0
0
0
0
0
0
0
0
0
0
0
0
0
0
0
0
0
0
0
0
0
0
0
0
0
0
0
0
0
0
0
0
0
0
0
0
0
0
0
0
0
0
0
0
0
0
0
0
0
0
0
0
0
0
0
0
0
0
0
0
0
0
0
0
0
0
0
0
0
0
0
0
0
0
0
0
0
0
0
0
0
0
0
0
0
0
0
0
0
0
0
0
0
0
0
0
0
0
0
0
0
0
0
0
0
0
0
0
0
0
0
0
0
0
0
0
0
0
0
0
0
0
0
0
0
0
0
0
0
0
0
0
0
0
0
0
0
0
0
0
0
0
0
0
0
0
0
0
0
0
0
0
0
0
0
0
0
0
0
0
0
0
0
0
0
0
0
0
0
0
0
0
0
0
0
0
0
0
0
0
0
0
0
0
0
0
0
0
0
0
0
0
0
0
0
0
0
0
0
0
0
0
0
0
0
0
0
0
0
0
0
0
0
0
0
0
0
0
0
0
0
0
0
0
0
0
0
0
0
0
0
0
0
0
0
0
0
-1.44074e-225
-2.6159e-200
-1.13112e-189
-1.36124e-183
-3.52007e-179
-2.72901e-175
-1.00485e-171
-2.07679e-168
-2.60148e-165
-2.08393e-162
-1.10519e-159
-3.93944e-157
-9.4181e-155
-1.47504e-152
-1.38839e-150
-4.13374e-149
-7.99536e-149
1.12099e-142
1.73457e-135
1.81194e-128
4.76442e-121
2.36537e-113
8.91642e-106
1.45322e-98
1.40901e-85
1.4131e-85
2.59779e-63
7.09288e-56
2.20767e-49
7.4351e-44
6.02938e-39
1.71251e-34
2.61488e-31
3.09858e-29
1.24944e-27
2.79347e-26
4.16843e-25
4.57025e-24
3.90869e-23
2.72208e-22
1.59659e-21
8.10493e-21
3.64059e-20
1.47354e-19
5.45664e-19
1.87402e-18
6.02503e-18
1.82683e-17
5.22538e-17
1.40529e-16
3.53838e-16
8.2772e-16
1.81551e-15
3.69652e-15
7.04811e-15
1.24313e-14
2.13037e-14
3.12747e-14
4.07565e-14
4.71907e-14
5.05542e-14
5.46716e-14
5.53966e-14
5.35692e-14
4.88451e-14
4.17543e-14
3.36621e-14
2.58284e-14
1.91417e-14
1.42324e-14
1.10783e-14
9.03639e-15
7.51498e-15
6.21658e-15
4.95237e-15
3.48249e-15
2.03315e-15
1.68719e-15
2.2794e-15
9.2458e-15
8.25907e-14
1.14607e-12
4.1094e-11
2.73374e-09
1.79644e-07
8.08207e-06
0.000227064
0.00445948
0.0508089
0.411589
0.890105
0.994935
0.999956
1
1
1
1
1
0.999999
0.999995
0.999994
0.999994
0.999993
0.999995
0.999997
0.999999
1
1
1
1
1
1
1
1
1
1
1
1
1
1
1
1
1
1
1
1
1
1
1
1
1
1
1
1
1
1
1
1
1
1
1
1
0
0
0
0
0
0
0
0
0
0
0
0
0
0
0
0
0
0
0
0
0
0
0
0
0
0
0
0
0
0
0
0
0
0
0
0
0
0
0
0
0
0
0
0
0
0
0
0
0
0
0
0
0
0
0
0
0
0
0
0
0
0
0
0
0
0
0
0
0
0
0
0
0
0
0
0
0
0
0
0
0
0
0
0
0
0
0
0
0
0
0
0
0
0
0
0
0
0
0
0
0
0
0
0
0
0
0
0
0
1
1
1
1
1
1
1
1
1
1
1
1
1
1
1
1
1
1
1
1
1
1
1
1
1
1
1
1
1
1
1
1
1
1
1
1
1
1
1
1
1
1
1
1
1
1
1
1
1
1
1
1
1
1
1
1
1
1
1
1
0
0
0
0
0
0
0
0
0
0
0
0
0
0
0
0
0
0
0
0
0
0
0
0
0
0
0
0
0
0
0
0
0
0
0
0
0
0
0
0
0
0
0
0
0
0
0
0
0
0
0
0
0
0
0
0
0
0
0
0
0
0
0
0
0
0
0
0
0
0
0
0
0
0
0
0
0
0
0
0
0
0
0
0
0
0
0
0
0
0
0
0
0
0
0
0
0
0
0
0
0
0
0
0
0
0
0
0
0
0
0
0
0
0
0
0
0
0
0
0
0
0
0
0
0
0
0
0
0
0
0
0
0
0
0
0
0
0
0
0
0
0
0
0
0
0
0
0
0
0
0
0
0
0
0
0
0
0
0
0
0
0
0
0
0
0
0
0
0
0
0
0
0
0
0
0
0
0
0
0
0
0
0
0
0
0
0
0
0
0
0
0
0
0
0
0
0
0
0
0
0
0
0
0
0
0
0
0
0
0
0
0
0
0
0
0
0
0
0
0
0
0
0
0
0
0
0
0
0
0
0
0
0
0
0
0
0
0
0
0
-2.99683e-228
-1.15001e-203
-1.5599e-192
-2.0708e-185
-1.15191e-180
-1.13283e-176
-4.49473e-173
-9.32695e-170
-1.10849e-166
-8.16271e-164
-3.88317e-161
-1.21467e-158
-2.49391e-156
-3.24354e-154
-2.3479e-152
-3.44405e-151
6.17691e-151
7.22169e-144
8.17396e-137
1.51147e-129
1.11013e-122
3.85386e-115
4.42936e-105
2.89178e-96
2.35041e-88
3.50306e-75
4.6561e-67
1.24402e-58
2.57223e-52
6.51885e-47
4.12883e-42
9.22937e-38
2.01644e-34
3.46878e-32
1.70653e-30
4.5079e-29
7.85865e-28
1.00199e-26
9.94483e-26
8.0209e-25
5.42907e-24
3.16251e-23
1.61755e-22
7.38379e-22
3.04855e-21
1.15119e-20
4.00923e-20
1.29609e-19
3.90081e-19
1.09398e-18
2.8583e-18
6.9424e-18
1.57293e-17
3.31502e-17
6.52628e-17
1.19152e-16
2.01131e-16
3.12566e-16
4.40485e-16
5.70209e-16
7.15522e-16
7.6614e-16
7.46951e-16
6.93672e-16
6.08587e-16
5.04027e-16
3.9553e-16
2.95881e-16
2.12366e-16
1.4709e-16
9.87748e-17
6.4414e-17
4.00633e-17
2.27211e-17
1.66699e-17
1.83445e-17
3.21696e-17
9.22704e-17
3.41804e-16
1.56302e-15
9.99867e-15
1.03956e-13
1.68036e-12
7.80358e-11
5.54445e-09
2.70317e-07
7.89719e-06
0.000143883
0.00237328
0.0311099
0.316356
0.849108
0.991789
0.999914
1
1
1
1
1
1
1
1
1
1
1
1
1
1
1
1
1
1
1
1
1
1
1
1
1
1
1
1
1
1
1
1
1
1
1
1
1
1
1
1
1
1
1
1
1
1
1
1
1
1
1
1
1
1
1
1
1
1
1
1
1
1
1
1
1
1
1
1
1
1
1
1
1
1
1
1
1
1
1
1
1
1
1
1
1
1
1
1
1
1
1
1
0.999878
0.989712
0.828368
0.282484
0.0269916
0.00202985
0.000125363
6.96414e-06
2.36339e-07
4.81396e-09
6.7514e-11
1.47172e-12
8.9626e-14
8.98294e-15
1.49479e-15
3.32779e-16
9.12775e-17
3.24484e-17
1.88904e-17
1.73346e-17
2.40608e-17
4.23359e-17
6.78718e-17
1.03906e-16
1.54517e-16
2.22847e-16
3.10162e-16
4.14141e-16
5.27101e-16
6.35779e-16
7.24168e-16
7.79551e-16
7.99531e-16
7.4693e-16
5.95392e-16
4.60103e-16
3.26784e-16
2.10504e-16
1.24838e-16
6.84623e-17
3.48215e-17
1.65462e-17
7.31428e-18
3.01632e-18
1.15649e-18
4.13121e-19
1.37525e-19
4.26244e-20
1.22642e-20
3.25486e-21
7.90198e-22
1.73545e-22
3.40235e-23
5.85848e-24
8.68457e-25
1.08092e-25
1.09399e-26
8.62681e-28
4.98234e-29
1.90333e-30
3.9202e-32
2.33333e-34
1.12061e-37
5.12229e-42
8.3482e-47
3.43637e-52
1.78115e-58
8.85228e-67
6.81675e-75
3.84493e-88
4.28711e-96
6.49998e-105
5.29874e-115
1.53095e-122
2.07085e-129
1.11882e-136
9.70299e-144
1.62027e-150
-2.92505e-156
-1.25685e-156
-4.06752e-158
-4.27594e-160
-2.55128e-162
-9.61365e-165
-2.33384e-167
-3.62084e-170
-3.47125e-173
-1.92099e-176
-5.57617e-180
-6.801e-184
-1.79546e-188
-4.32982e-195
-3.95734e-206
-1.04103e-243
-7.70612e-253
0
0
0
0
0
0
0
0
0
0
0
0
0
0
0
0
0
0
0
0
0
0
0
0
0
0
0
0
0
0
0
0
0
0
0
0
0
0
0
0
0
0
0
0
0
0
0
0
0
0
0
0
0
0
0
0
0
0
0
0
0
0
0
0
0
0
0
0
0
0
0
0
0
0
0
0
0
0
0
0
0
0
0
0
0
0
0
0
0
0
0
0
0
0
0
0
0
0
0
0
0
0
0
0
0
0
0
0
0
0
0
0
0
0
0
0
0
0
0
0
0
0
0
0
0
0
0
0
0
0
0
0
0
0
0
0
0
0
0
0
0
0
0
0
0
0
0
0
0
0
0
0
0
0
0
0
0
0
0
0
0
0
0
0
0
0
0
0
0
0
0
0
0
0
0
0
0
0
0
0
0
0
0
0
0
0
0
0
0
0
0
0
0
0
0
0
0
0
0
0
0
0
0
0
0
0
0
0
0
0
0
0
0
0
0
0
0
0
0
0
0
0
0
0
0
0
0
0
0
0
0
0
0
0
0
0
0
0
0
0
0
0
0
0
0
0
0
0
0
0
0
0
0
0
0
0
0
0
0
0
0
0
0
-7.64448e-231
-6.1623e-207
-1.83232e-195
-6.09728e-188
-1.39244e-182
-2.16313e-178
-1.05251e-174
-2.40256e-171
-2.95512e-168
-2.17237e-165
-1.00775e-162
-2.99566e-160
-5.68878e-158
-6.60608e-156
-3.86762e-154
-3.83058e-153
2.27102e-152
2.40611e-145
1.13702e-138
1.39784e-131
2.16024e-124
2.7146e-117
2.72727e-117
9.56754e-95
9.61588e-95
5.64211e-82
1.46421e-70
8.49787e-62
1.25904e-55
2.63261e-50
1.42562e-45
2.72011e-41
9.61574e-38
2.38844e-35
1.36774e-33
4.12113e-32
8.17239e-31
1.18642e-29
1.34312e-28
1.2373e-27
9.5688e-27
6.3629e-26
3.70732e-25
1.92151e-24
8.96817e-24
3.80651e-23
1.48036e-22
5.3044e-22
1.75694e-21
5.38823e-21
1.53116e-20
4.03094e-20
9.84528e-20
2.22931e-19
4.68282e-19
9.09813e-19
1.6312e-18
2.68532e-18
4.07048e-18
5.66969e-18
7.17712e-18
8.71952e-18
9.56627e-18
9.39279e-18
8.822e-18
7.87463e-18
6.67676e-18
5.38346e-18
4.14424e-18
3.06996e-18
2.17929e-18
1.38359e-18
9.58632e-19
1.0424e-18
2.0447e-18
6.48321e-18
2.54533e-17
1.07318e-16
4.29555e-16
1.58552e-15
6.21793e-15
3.21002e-14
2.50952e-13
4.23153e-12
1.78162e-10
7.81551e-09
2.32819e-07
4.45111e-06
7.43845e-05
0.00127324
0.0219728
0.266719
0.826216
0.989873
0.999884
1
1
1
1
1
1
1
1
1
1
1
1
1
1
1
1
1
1
1
1
1
1
1
1
1
1
1
1
1
1
1
1
1
1
1
1
1
1
1
1
1
1
1
1
1
1
1
1
1
1
1
1
1
1
1
1
1
1
1
1
1
1
1
1
1
1
1
1
1
1
1
1
1
1
1
1
1
1
1
1
1
1
1
1
1
1
1
1
1
1
0.999836
0.98735
0.802777
0.232822
0.018621
0.00106465
6.36101e-05
3.89694e-06
2.06115e-07
6.92617e-09
1.577e-10
3.76387e-12
2.21489e-13
2.95336e-14
6.01969e-15
1.57464e-15
4.28654e-16
1.06915e-16
2.53565e-17
6.50279e-18
2.07943e-18
1.08684e-18
1.01017e-18
1.47537e-18
2.31234e-18
3.2498e-18
4.38082e-18
5.68203e-18
7.03687e-18
8.28994e-18
9.28048e-18
9.87665e-18
1.00566e-17
9.16064e-18
7.54287e-18
5.96096e-18
4.28295e-18
2.82829e-18
1.72002e-18
9.60631e-19
4.95153e-19
2.36093e-19
1.04442e-19
4.2838e-20
1.63027e-20
5.74842e-21
1.87825e-21
5.6828e-22
1.58949e-22
4.09664e-23
9.67549e-24
2.07852e-24
4.02167e-25
6.92387e-26
1.04483e-26
1.35626e-27
1.4788e-28
1.31307e-29
9.10154e-31
4.62555e-32
1.55079e-33
2.74666e-35
1.13471e-37
3.37651e-41
1.80319e-45
3.41209e-50
1.70325e-55
1.22428e-61
2.77893e-70
6.4087e-82
4.85237e-93
1.31759e-94
8.58109e-117
8.5402e-117
3.06165e-124
1.96255e-131
1.59802e-138
3.31765e-145
4.11973e-152
-7.09922e-159
-8.99285e-159
-6.55743e-160
-8.21702e-162
-5.44808e-164
-2.19618e-166
-5.54203e-169
-8.67512e-172
-8.13256e-175
-4.16582e-178
-1.01573e-181
-8.57686e-186
-6.87522e-191
-5.20254e-198
-2.1477e-209
-3.36495e-247
-2.14599e-256
0
0
0
0
0
0
0
0
0
0
0
0
0
0
0
0
0
0
0
0
0
0
0
0
0
0
0
0
0
0
0
0
0
0
0
0
0
0
0
0
0
0
0
0
0
0
0
0
0
0
0
0
0
0
0
0
0
0
0
0
0
0
0
0
0
0
0
0
0
0
0
0
0
0
0
0
0
0
0
0
0
0
0
0
0
0
0
0
0
0
0
0
0
0
0
0
0
0
0
0
0
0
0
0
0
0
0
0
0
0
0
0
0
0
0
0
0
0
0
0
0
0
0
0
0
0
0
0
0
0
0
1
1
1
1
1
1
1
1
1
1
1
1
1
1
1
1
1
1
1
1
1
1
1
1
1
1
0
0
0
0
0
0
0
0
0
0
0
0
0
0
0
0
0
0
0
0
0
0
0
0
0
0
0
0
0
0
0
0
0
0
0
0
0
0
0
0
0
0
0
0
0
0
0
0
0
0
0
0
0
0
0
0
0
0
0
0
0
0
0
0
0
0
0
0
0
0
0
0
0
0
0
0
0
0
0
0
0
0
0
0
0
0
0
0
0
0
0
0
0
0
0
0
0
0
0
0
0
0
0
0
0
0
0
0
0
0
0
0
0
0
0
0
0
0
0
0
0
0
0
0
0
0
0
0
0
0
0
0
0
0
0
0
0
0
0
0
0
0
0
0
0
0
0
0
0
0
0
0
0
0
0
0
0
0
0
0
0
0
0
0
0
0
0
0
0
0
0
0
0
0
0
0
0
0
0
0
0
0
0
0
0
0
0
0
0
0
0
0
0
0
0
0
0
0
0
0
0
0
0
0
0
0
0
0
0
0
0
0
0
0
0
0
0
0
0
0
0
0
0
0
0
0
0
0
0
0
0
0
0
0
0
0
0
0
0
0
0
0
0
0
0
0
0
0
0
0
0
0
0
0
0
0
0
0
0
0
0
0
0
0
0
0
0
0
0
0
0
0
0
0
0
0
0
0
0
0
0
0
0
0
0
0
0
0
0
0
0
0
0
0
0
0
0
0
0
0
0
0
0
0
0
0
0
0
0
0
0
0
0
0
0
0
0
0
0
0
0
0
0
0
0
0
0
0
0
0
0
0
0
0
0
0
0
0
-2.29833e-233
-4.00267e-210
-2.21073e-198
-1.408e-190
-8.19146e-185
-2.23489e-180
-1.46126e-176
-4.01072e-173
-5.52165e-170
-4.37332e-167
-2.11552e-164
-6.38994e-162
-1.2028e-159
-1.33344e-157
-5.85964e-156
-5.68281e-155
1.36236e-154
1.78799e-147
1.44582e-140
7.00614e-134
8.9972e-127
3.25756e-117
2.21653e-108
2.55727e-103
1.10569e-89
8.19576e-81
8.24856e-81
1.06526e-65
1.74051e-59
3.42928e-54
1.76047e-49
3.24058e-45
2.51289e-41
9.96845e-39
6.64685e-37
2.29587e-35
5.21173e-34
8.6625e-33
1.12279e-31
1.18368e-30
1.04635e-29
7.93771e-29
5.26206e-28
3.09257e-27
1.62997e-26
7.77507e-26
3.38013e-25
1.34622e-24
4.92892e-24
1.66255e-23
5.17318e-23
1.48597e-22
3.94424e-22
9.67477e-22
2.19333e-21
4.59007e-21
8.85508e-21
1.57287e-20
2.57204e-20
3.87694e-20
5.3917e-20
6.96277e-20
8.23591e-20
9.48654e-20
9.60555e-20
9.32302e-20
8.64996e-20
7.66023e-20
6.49163e-20
5.06643e-20
4.03291e-20
4.39435e-20
9.05489e-20
3.40242e-19
1.74767e-18
1.05196e-17
5.79902e-17
2.8672e-16
1.27309e-15
4.99195e-15
1.62568e-14
4.26598e-14
1.26304e-13
6.02913e-13
7.00225e-12
2.06865e-10
5.85535e-09
1.14593e-07
1.85498e-06
3.46554e-05
0.000769017
0.0187687
0.258999
0.827046
0.990103
0.999888
1
1
1
1
1
1
1
1
1
1
1
1
1
1
1
1
1
1
1
1
1
1
1
1
1
1
1
1
1
1
1
1
1
1
1
1
1
1
1
1
1
1
1
1
1
1
1
1
1
1
1
1
1
1
1
1
1
1
1
1
1
1
1
1
1
1
1
1
1
1
1
1
1
1
1
1
1
1
1
1
1
1
1
1
1
1
0.999841
0.987632
0.803524
0.224227
0.0155299
0.000625824
2.87255e-05
1.59e-06
1.01387e-07
5.27471e-09
1.88867e-10
6.46904e-12
5.62991e-13
1.21138e-13
4.31477e-14
1.63729e-14
4.95675e-15
1.25923e-15
2.83404e-16
5.74001e-17
1.04442e-17
1.74673e-18
3.44304e-19
9.31607e-20
4.62588e-20
4.27709e-20
5.3966e-20
6.89495e-20
8.12578e-20
9.16776e-20
9.87536e-20
1.01722e-19
1.00289e-19
8.70707e-20
7.36191e-20
5.70228e-20
4.1027e-20
2.72421e-20
1.66778e-20
9.40184e-21
4.88078e-21
2.33609e-21
1.03229e-21
4.21652e-22
1.59175e-22
5.55316e-23
1.78859e-23
5.31464e-24
1.45497e-24
3.66199e-25
8.44442e-26
1.77489e-26
3.3767e-27
5.76205e-28
8.71856e-29
1.15306e-29
1.30903e-30
1.24651e-31
9.65798e-33
5.83807e-34
2.5854e-35
7.53171e-37
1.14005e-38
3.05506e-41
4.11281e-45
2.26956e-49
4.49785e-54
2.38529e-59
1.56404e-65
1.4689e-80
1.4595e-80
1.96874e-89
4.30466e-103
3.68791e-108
5.3924e-117
1.28482e-126
9.95998e-134
2.05543e-140
2.49151e-147
3.38725e-154
-1.40325e-160
-1.29895e-160
-1.09328e-161
-1.53334e-163
-1.05239e-165
-4.23093e-168
-1.03534e-170
-1.52163e-173
-1.28936e-176
-5.58969e-180
-1.03968e-183
-5.33259e-188
-1.89002e-193
-6.38685e-201
-1.41392e-212
-1.40474e-250
-7.68454e-260
0
0
0
0
0
0
0
0
0
0
0
0
0
0
0
0
0
0
0
0
0
0
0
0
0
0
0
0
0
0
0
0
0
0
0
0
0
0
0
0
0
0
0
0
0
0
0
0
0
0
0
0
0
0
0
0
0
0
0
0
0
0
0
0
0
0
0
0
0
0
0
0
0
0
0
0
0
0
0
0
0
0
0
0
0
0
0
0
0
0
0
0
0
0
0
0
0
0
0
0
0
0
0
0
0
0
0
0
0
0
0
0
0
0
0
0
0
0
0
0
0
0
0
0
0
0
0
0
0
1
1
1
1
1
1
1
1
1
1
1
1
1
1
1
1
1
1
1
1
1
1
1
1
1
1
1
1
1
1
1
1
1
1
1
1
1
1
1
1
1
1
1
1
1
1
1
1
1
1
1
1
1
1
1
1
1
1
1
1
1
1
1
1
1
0.999888
0.990277
0.829081
0.256284
0.0167501
0.00050912
1.52321e-05
5.99964e-07
3.43348e-08
2.32204e-09
1.31885e-10
8.37665e-12
1.47013e-12
5.89301e-13
3.22753e-13
1.33961e-13
4.24584e-14
1.15246e-14
2.78517e-15
6.06075e-16
1.20051e-16
2.18761e-17
3.68074e-18
5.64375e-19
7.85214e-20
1.26414e-20
2.98579e-21
1.33191e-21
1.16003e-21
1.18247e-21
1.21044e-21
1.16013e-21
1.05022e-21
9.02757e-22
7.27613e-22
5.48878e-22
3.86186e-22
2.52575e-22
1.53164e-22
8.59386e-23
4.45437e-23
2.13089e-23
9.40648e-24
3.83183e-24
1.44047e-24
4.99441e-25
1.59604e-25
4.69536e-26
1.26994e-26
3.152e-27
7.16042e-28
1.48326e-28
2.78705e-29
4.71723e-30
7.12665e-31
9.49936e-32
1.10072e-32
1.08789e-33
8.94575e-35
5.91754e-36
3.00123e-37
1.08339e-38