/*--------------------------------*- C++ -*----------------------------------*\
| =========                 |                                                 |
| \\      /  F ield         | OpenFOAM: The Open Source CFD Toolbox           |
|  \\    /   O peration     | Version:  2.2.1                                 |
|   \\  /    A nd           | Web:      www.OpenFOAM.org                      |
|    \\/     M anipulation  |                                                 |
\*---------------------------------------------------------------------------*/
FoamFile
{
    version     2.0;
    format      ascii;
    class       volScalarField;
    location    "1.5e-05";
    object      p_rgh;
}
// * * * * * * * * * * * * * * * * * * * * * * * * * * * * * * * * * * * * * //

dimensions      [1 -1 -2 0 0 0 0];

internalField   nonuniform List<scalar> 
22464
(
498.736
-211.784
-282.221
-388.287
-514.203
-702.855
-902.659
-1080.31
-1261.41
-1443.49
-1616.6
-1785.48
-1957.78
-2166.09
-2346.4
-2494.52
-2653.48
-2818.1
-2980.73
-3152.83
-3340.04
-3479.51
-3624.72
-3775.84
-3927.1
-4086.95
-4288.63
-4427.1
-4540.7
-4679.89
-4818.14
-5014.84
-5153.23
-5286.58
-5316.45
-5384.08
-5513.24
-5633.63
-5748.47
-5903.76
-6017.6
-6050.05
-6147.92
-6319.01
-6339.8
-6293.02
-6153.45
-6081.25
-6521.1
-4503.21
-1822.67
-3129.73
-5676.2
-5229.9
-4544.95
-3623.19
-2324.34
-428.102
2618.05
7651.11
9756.92
2870.17
-228.531
104.591
129.687
127.169
164.093
146.074
152.531
152.528
147.357
144.323
140.676
137.633
135.102
132.559
129.526
125.667
121.468
116.908
112.361
107.883
103.908
100.594
98.1889
97.4124
95.7255
93.597
94.6363
120.97
199.514
289.985
314.991
289.261
165.013
115.228
87.6585
71.5896
63.4134
57.9067
54.8871
51.073
47.4916
44.1583
41.3408
39.1777
37.7428
36.9799
36.6083
36.3322
36.0612
35.7931
35.528
35.265
35.0031
34.7419
34.4815
34.2227
33.9658
33.7102
33.4553
33.201
32.948
32.6963
32.4459
32.1962
31.947
31.6987
31.4518
31.2063
30.9619
30.7181
30.4753
30.2338
29.9937
29.7544
29.5155
29.2768
29.0388
28.8016
28.5652
28.3292
28.0935
27.8583
27.6241
27.3912
27.1592
26.9278
26.6965
26.4653
26.2346
26.0046
25.7752
25.546
25.317
25.0884
24.8606
24.6335
24.4068
24.1799
23.9523
23.7243
23.4966
23.2698
23.044
22.8189
22.594
22.369
22.1441
21.9197
21.6962
21.4737
21.2519
21.0304
20.8088
20.5871
20.3656
20.1447
19.9244
19.7046
19.4849
19.2651
19.0454
18.8263
18.608
18.3907
18.1741
17.9577
17.7413
17.525
17.3091
17.0941
16.8803
16.6676
16.456
16.2452
16.035
15.8254
15.6164
15.4079
15.2002
14.9935
14.7879
14.5834
14.3797
14.1767
13.9742
13.7723
13.5712
13.3712
13.1725
12.975
12.7785
12.5824
12.3866
12.1911
11.9961
11.8021
11.6093
11.4181
11.2282
11.0392
10.851
10.6631
10.4754
10.2879
10.1006
9.91344
9.72646
9.53961
9.35289
9.16637
8.98014
8.79424
8.60856
8.42288
8.23679
8.04987
7.86177
7.67231
7.48152
7.28964
7.09704
6.9041
6.71115
6.51839
6.32593
6.13379
5.94202
5.7507
5.56002
5.37027
5.18182
4.99508
4.81042
4.6281
4.44824
4.27074
4.09536
3.92168
3.74922
3.57748
3.40608
3.23477
3.06351
2.89245
2.72188
2.55218
2.38368
2.21665
2.05121
1.88741
1.72526
1.56481
1.40618
1.24963
1.09536
0.943738
0.794724
0.649717
0.507503
0.371809
0.246949
0.142646
0.0392
0.0424715
0.153296
0.265236
0.395984
0.535799
0.680327
0.829568
0.982249
1.1383
1.29741
1.45906
1.62263
1.78748
1.9531
2.11925
2.28594
2.45337
2.62179
2.79146
2.96251
3.13501
3.30888
3.48398
3.66011
3.83704
4.01454
4.19241
4.37048
4.54865
4.72686
4.9051
5.08342
5.26191
5.44074
5.62008
5.80017
5.98125
6.16357
6.34733
6.53264
6.71952
6.90782
7.09724
7.28737
7.47774
7.66788
7.8574
8.04606
8.23383
8.42087
8.60748
8.79404
8.98094
9.16845
9.35677
9.54592
9.73585
9.92645
10.1176
10.3093
10.5014
10.6939
10.8869
11.0802
11.2736
11.467
11.6603
11.8532
12.0459
12.2383
12.4307
12.6232
12.8161
13.0095
13.2035
13.3981
13.5934
13.7893
13.9861
14.1836
14.3822
14.5817
14.7822
14.9836
15.186
15.3892
15.5935
15.7989
16.0057
16.2141
16.4243
16.6362
16.8498
17.0649
17.2811
17.4982
17.7158
17.9336
18.1518
18.3704
18.5897
18.81
19.0315
19.254
19.4773
19.7009
19.9244
20.1476
20.3703
20.5927
20.8149
21.0374
21.2601
21.483
21.7062
21.9295
22.153
22.3766
22.6006
22.8251
23.0501
23.2756
23.5014
23.7273
23.9534
24.1795
24.4058
24.6326
24.8601
25.0885
25.3175
25.547
25.7768
26.0066
26.2366
26.4671
26.6983
26.9303
27.1632
27.3971
27.6318
27.867
28.1028
28.3388
28.575
28.8115
29.0485
29.2862
29.5248
29.7644
30.005
30.2464
30.4885
30.7314
30.975
31.2195
31.4647
31.7109
31.958
32.2063
32.4557
32.7061
32.9572
33.209
33.4615
33.7145
33.9685
34.2236
34.48
34.7379
34.9972
35.2578
35.5197
35.7832
36.0494
36.3185
36.5926
36.9601
37.7153
39.1408
41.2948
44.1037
47.4315
51.0088
54.8265
57.8489
63.326
71.4562
87.3072
114.492
163.303
287.211
313.91
289.66
199.971
121.56
94.7222
93.5191
95.5176
97.2852
97.9974
100.481
103.722
107.685
112.089
116.601
121.144
125.361
129.29
132.399
134.946
137.502
140.391
143.729
146.542
152.033
151.981
145.386
163.259
123.575
125.777
85.3161
-241.273
3287.59
9736.88
7181.96
2311.54
-584.339
-2395.7
-3641.14
-4527.75
-5190.14
-5611.34
-2990.16
-1750.57
-4556.39
-6478.47
-6038.34
-6120.65
-6253.14
-6298.27
-6278.98
-6108.3
-6014.01
-5984.85
-5880.31
-5729.43
-5618.94
-5503.13
-5378.68
-5317.21
-5290.13
-5166.29
-5026.03
-4835.63
-4701.53
-4569.2
-4461.07
-4328.77
-4132.02
-3979.51
-3834.28
-3689.43
-3550.22
-3418.76
-3236.85
-3073.49
-2920.08
-2765.55
-2614.86
-2462.1
-2298.99
-2140.39
-1974.03
-1779.63
-1612.73
-1443.56
-1270.22
-1105.17
-919.986
-769.256
-678.896
-578.351
-562.817
981.457
0.055617
0.0614783
0.0615868
0.0628583
0.0746903
0.0782343
0.0775222
0.0761227
0.0752675
0.0748365
0.0744611
0.0738863
0.0729719
0.0716146
0.0697507
0.0673721
0.0645133
0.0612315
0.057588
0.0536397
0.0494347
0.0450163
0.0404236
0.0356926
0.0308578
0.0259515
0.0210045
0.0160461
0.0111022
0.0061965
0.00134925
-0.00342074
-0.00809688
-0.0126647
-0.0171119
-0.0214276
-0.0256021
-0.0296271
-0.0334952
-0.0372002
-0.0407372
-0.0441013
-0.047289
-0.0502969
-0.0531225
-0.0557639
-0.0582195
-0.0604878
-0.0625682
-0.0644596
-0.0661616
-0.0676733
-0.0689943
-0.0701239
-0.0710614
-0.071807
-0.0723608
-0.072723
-0.0728944
-0.0728761
-0.0726687
-0.072273
-0.0716895
-0.070919
-0.0699626
-0.0688201
-0.0674915
-0.065977
-0.0642769
-0.0623913
-0.0603205
-0.058065
-0.0556254
-0.0530037
-0.0502011
-0.0472198
-0.0440624
-0.0407312
-0.0372293
-0.0335612
-0.0297304
-0.0257418
-0.0216015
-0.0173164
-0.012895
-0.0083478
-0.0036873
0.00107193
0.00591243
0.0108144
0.015756
0.0207138
0.0256628
0.0305766
0.0354291
0.0401933
0.0448407
0.0493412
0.0536606
0.057759
0.0615893
0.0650958
0.0682129
0.0708693
0.073007
0.0745914
0.0756137
0.0759494
0.0754269
0.0741405
0.0729645
0.0730307
0.0735224
0.0686126
0.0584033
0.0615544
0.0639183
0.0588197
-51.8594
-133.216
-118.172
-97.9841
-96.5944
-118.488
-121.242
-123.746
-126.939
-130.443
-134.375
-138.401
-142.071
-145.342
-148.087
-150.163
-151.295
-151.241
-149.837
-146.977
-142.642
-136.713
-129.197
-120.128
-109.592
-98.0403
-85.5544
-72.1737
-58.1326
-43.9571
-30.2874
-17.4116
-5.41184
2.89317
10.0145
13.987
16.2882
268.375
0.178147
0.29532
0.421089
0.551786
0.689656
0.834568
0.984393
1.13857
1.29635
1.45703
1.61994
1.78444
1.94997
2.11626
2.28322
2.45095
2.61967
2.78955
2.96075
3.13332
3.30723
3.48236
3.65853
3.83552
4.01311
4.19108
4.36928
4.54757
4.72588
4.9042
5.08255
5.26105
5.43982
5.61907
5.79903
5.97997
6.16215
6.3458
6.53103
6.71787
6.90615
7.09558
7.28571
7.47605
7.6661
7.85546
8.04392
8.23145
8.41824
8.60463
8.79101
8.97779
9.16525
9.35354
9.54267
9.73258
9.92313
10.1142
10.3058
10.4978
10.6903
10.8833
11.0765
11.2699
11.4633
11.6565
11.8494
12.0419
12.2342
12.4265
12.6189
12.8118
13.0051
13.1991
13.3936
13.5888
13.7846
13.9812
14.1788
14.3772
14.5767
14.7772
14.9785
15.1808
15.384
15.5881
15.7935
16.0002
16.2085
16.4186
16.6305
16.8441
17.0592
17.2754
17.4924
17.7099
17.9276
18.1455
18.364
18.5832
18.8035
19.0251
19.2477
19.471
19.6946
19.918
20.1409
20.3634
20.5856
20.8078
21.0301
21.2528
21.4757
21.6989
21.9221
22.1454
22.3689
22.5928
22.8171
23.042
23.2674
23.4931
23.719
23.9449
24.1708
24.397
24.6237
24.8511
25.0794
25.3083
25.5377
25.7673
25.9969
26.2268
26.4571
26.6882
26.9201
27.153
27.3867
27.6212
27.8564
28.092
28.3278
28.5638
28.8001
29.0369
29.2744
29.5129
29.7523
29.9926
30.2337
30.4756
30.7182
30.9616
31.2057
31.4506
31.6963
31.943
32.1908
32.4397
32.6894
32.9399
33.191
33.4424
33.6944
33.9472
34.2008
34.4555
34.7112
34.9676
35.2244
35.481
35.7368
35.9904
36.2367
36.4581
36.6346
36.7808
36.9369
37.1263
37.344
37.5854
37.8052
38.1436
38.4635
38.8605
39.6164
39.765
41.5597
40.009
41.9971
40.317
42.7724
42.9699
45.4564
48.89
46.686
43.3291
43.1548
43.1805
43.3733
43.4731
43.6812
43.8967
44.1398
44.3697
44.5602
44.6984
44.7812
44.7483
44.5455
44.0553
43.4463
42.4755
40.3346
40.5362
37.8795
32.1062
42.6936
11.0156
13.7697
-20.0224
-88.4975
-637.38
854.032
747.877
-957.29
-2476.47
-3579
-4381.25
-4968.09
-5368.5
-5437.02
-5444.69
-5121.85
-3650.08
-3828.42
-5772.1
-6261.42
-6291.84
-6249.83
-6189.81
-6117.32
-6032.4
-5941.68
-5844.31
-5742.49
-5633.52
-5520.29
-5404.24
-5285.26
-5158.64
-5030.16
-4897.2
-4763.43
-4625.07
-4484.88
-4344.04
-4201.14
-4055.55
-3909.01
-3759.88
-3609.88
-3459.08
-3306.7
-3153.19
-2998.33
-2842.29
-2685.25
-2526.98
-2367.29
-2206.24
-2044.08
-1879.29
-1712.36
-1542.93
-1371.58
-1199.8
-1029.55
-863.273
-703.001
-549.807
-417.59
-165.202
-320.921
-484.273
-648.601
-819.612
-997.683
-1177.58
-1357.03
-1535.08
-1711.89
-1887.83
-2061.79
-2233.68
-2403.14
-2571.49
-2737.51
-2901.86
-3064.7
-3225.7
-3385.07
-3542.61
-3698.94
-3854.2
-4006.56
-4157.69
-4306.05
-4452.23
-4597.5
-4740.15
-4879.54
-5017.3
-5149.5
-5282.19
-5406.18
-5526.98
-5644.9
-5758.55
-5865.09
-5967.01
-6062.08
-6151
-6227.21
-6290.43
-6334.65
-6302.29
-5748.09
-3856.89
-3674.67
-5240.88
-5523.7
-5508.72
-5423.99
-5007.45
-4398.88
-3565.05
-2416.67
-832.944
945.826
932.88
-638.302
-89.9197
-15.7295
13.9468
13.2343
43.3814
32.5786
38.5114
40.9147
40.7732
42.8135
43.7432
44.361
44.8295
45.0007
45.0101
44.9081
44.7489
44.5472
44.3052
44.0546
43.8278
43.6161
43.5041
43.307
43.2719
43.4086
46.7212
49.0132
45.5523
43.0499
42.8713
40.3853
42.0775
40.0847
41.6134
39.8306
39.667
38.9149
38.5076
38.1852
37.8417
37.6186
37.3742
37.1534
36.9606
36.801
36.6519
36.4734
36.2504
36.0023
35.7468
35.4896
35.232
34.9739
34.7152
34.457
34.2002
33.9449
33.6903
33.436
33.1826
32.9306
32.6798
32.4298
32.1803
31.9316
31.6838
31.4375
31.1925
30.9484
30.7048
30.4623
30.2213
29.9817
29.7426
29.5037
29.2651
29.0272
28.7903
28.554
28.3179
28.0822
27.8472
27.6134
27.3809
27.1492
26.9178
26.6864
26.4554
26.2249
25.9952
25.7658
25.5366
25.3075
25.0791
24.8516
24.6249
24.3983
24.1713
23.9436
23.7157
23.4881
23.2616
23.0361
22.8112
22.5863
22.3612
22.1363
21.912
21.6888
21.4666
21.2449
21.0233
20.8016
20.58
20.3587
20.1381
19.918
19.6983
19.4785
19.2586
19.0389
18.8198
18.6018
18.3847
18.1682
17.9519
17.7354
17.5191
17.3032
17.0882
16.8745
16.662
16.4506
16.2399
16.0298
15.8202
15.611
15.4025
15.1949
14.9883
14.7829
14.5785
14.375
14.172
13.9694
13.7675
13.5664
13.3665
13.168
12.9707
12.7743
12.5782
12.3824
12.1868
11.9918
11.7978
11.6053
11.4142
11.2244
11.0356
10.8474
10.6595
10.4719
10.2844
10.0972
9.91016
9.72327
9.53649
9.34985
9.16342
8.97733
8.7916
8.60613
8.42065
8.23472
8.0479
7.85983
7.67034
7.4795
7.28758
7.09497
6.90207
6.70919
6.51652
6.32415
6.13208
5.94033
5.74899
5.55825
5.36843
5.17993
4.99318
4.80857
4.62638
4.4467
4.26944
4.09431
3.92085
3.74854
3.57686
3.4054
3.23392
3.06238
2.89097
2.72
2.54989
2.38103
2.21371
2.04813
1.88439
1.72253
1.56259
1.40463
1.24883
1.09562
0.945723
0.799461
0.659645
0.526299
0.398988
0.277847
0.167548
0.17794
0.180255
0.182918
0.200483
0.214018
0.218302
0.220268
0.222412
0.224669
0.226684
0.228393
0.229787
0.230692
0.230935
0.230473
0.229361
0.227703
0.225604
0.22315
0.220399
0.217396
0.21418
0.210786
0.207248
0.2036
0.199877
0.196114
0.192342
0.188586
0.184873
0.181222
0.177653
0.174182
0.170822
0.167584
0.164479
0.161513
0.158693
0.156023
0.153507
0.151146
0.148939
0.146889
0.144992
0.143245
0.141648
0.140195
0.138884
0.137711
0.136673
0.135767
0.13499
0.134341
0.133818
0.133419
0.13314
0.132981
0.132936
0.133004
0.133182
0.133468
0.133862
0.134363
0.13497
0.135685
0.136512
0.137453
0.138511
0.139689
0.140992
0.142422
0.143984
0.145679
0.147507
0.149471
0.151573
0.153813
0.156193
0.158713
0.161373
0.164176
0.16712
0.170203
0.173422
0.176769
0.180235
0.183805
0.18746
0.191178
0.194931
0.198692
0.202432
0.206121
0.209733
0.213247
0.21664
0.219892
0.222975
0.225851
0.228463
0.230729
0.232534
0.233727
0.234155
0.233761
0.232529
0.230632
0.228402
0.22635
0.225081
0.226014
0.226975
0.206842
0.183244
0.18519
0.187148
-374.748
-351.339
-346.032
-338.517
-331.496
-325.618
-321.943
-320.054
-319.397
-319.681
-320.656
-322.005
-323.375
-324.576
-325.27
-325.162
-324.033
-321.688
-317.955
-312.728
-305.979
-297.718
-288.037
-277.142
-265.393
-253.147
-240.714
-228.304
-216.225
-205.041
-195.332
-187.345
-181.566
-179.007
-180.58
-182.042
0.295893
0.301879
0.306409
0.32965
0.353018
0.356651
0.359619
0.364115
0.368468
0.3723
0.375884
0.379335
0.382285
0.384371
0.385526
0.385867
0.385575
0.384808
0.383676
0.382245
0.380551
0.378625
0.376497
0.374199
0.371765
0.369233
0.366638
0.364014
0.361392
0.358795
0.356247
0.353767
0.351371
0.349073
0.346885
0.344816
0.342872
0.34106
0.339381
0.337837
0.336428
0.335151
0.334004
0.33298
0.332073
0.331278
0.330588
0.329995
0.329491
0.329071
0.328729
0.328459
0.328258
0.328121
0.328045
0.328023
0.328052
0.328127
0.328243
0.328396
0.328584
0.328806
0.329059
0.329345
0.329668
0.330033
0.330444
0.330908
0.331431
0.332021
0.332684
0.333426
0.334252
0.335165
0.33617
0.337272
0.338473
0.33978
0.341196
0.342727
0.344379
0.346157
0.348064
0.350102
0.352268
0.354556
0.356953
0.359441
0.361996
0.364587
0.367184
0.369752
0.372261
0.374687
0.377011
0.379223
0.381315
0.383274
0.385074
0.386663
0.387943
0.388741
0.38879
0.387856
0.385716
0.382467
0.378662
0.375059
0.371694
0.367832
0.365638
0.371099
0.342337
0.304084
0.309197
0.310817
-358.622
-523.955
-689.316
-859.388
-1033.12
-1208.39
-1383.96
-1559.18
-1733.78
-1907.39
-2079.5
-2249.84
-2418.32
-2585.03
-2749.92
-2913.12
-3074.71
-3234.67
-3393.03
-3549.79
-3705.05
-3858.72
-4010.47
-4160.31
-4307.96
-4453.51
-4597.1
-4738.32
-4876.94
-5012.94
-5145.27
-5273.96
-5397.59
-5517
-5632.41
-5743.02
-5847.9
-5946.77
-6038.88
-6124.08
-6200.63
-6271.54
-6245.15
-5897.64
-5606.8
-6036.29
-6334.71
-5797.82
-5644.8
-5512.21
-5313.55
-4953.88
-4425.49
-3701.92
-2725.74
-1604.06
-1777.02
-754.662
24.5603
4.26873
28.9282
30.7775
28.0085
33.7163
35.3021
37.8194
39.8422
41.0308
42.1767
43.0656
43.6979
44.1329
44.3853
44.4896
44.4829
44.4014
44.2699
44.1065
43.9314
43.7659
43.6289
43.5495
43.5361
43.5418
43.2797
42.7802
42.6795
42.9898
42.4967
41.9497
41.354
41.0661
40.481
40.3542
39.8863
39.4887
39.04
38.64
38.2937
37.9804
37.7077
37.4556
37.2221
37.0079
36.8101
36.6168
36.4123
36.1886
35.9495
35.7023
35.4512
35.1978
34.9427
34.6866
34.4308
34.1761
33.9221
33.6684
33.415
33.1627
32.9118
32.6618
32.4122
32.163
31.9147
31.6678
31.4222
31.1776
30.9336
30.6902
30.4482
30.2078
29.9685
29.7295
29.4906
29.2522
29.0147
28.7779
28.5416
28.3054
28.0697
27.835
27.6017
27.3695
27.138
26.9065
26.6752
26.4443
26.2141
25.9845
25.7552
25.5259
25.2968
25.0686
24.8414
24.6149
24.3885
24.1614
23.9336
23.7058
23.4785
23.2524
23.0272
22.8024
22.5774
22.3523
22.1275
21.9035
21.6806
21.4585
21.2368
21.0151
20.7934
20.5719
20.3509
20.1307
19.9108
19.6911
19.4711
19.251
19.0313
18.8124
18.5946
18.3778
18.1615
17.9451
17.7287
17.5123
17.2964
17.0816
16.868
16.6558
16.4446
16.234
16.0239
15.8141
15.6049
15.3964
15.1889
14.9825
14.7773
14.5731
14.3696
14.1665
13.9639
13.7619
13.561
13.3613
13.163
12.9658
12.7694
12.5733
12.3774
12.1818
11.9869
11.7931
11.6007
11.4098
11.2201
11.0313
10.843
10.6551
10.4675
10.2802
10.093
9.90612
9.71933
9.53265
9.34611
9.15983
8.9739
8.78836
8.60307
8.41773
8.23189
8.04509
7.857
7.66748
7.47661
7.2847
7.09215
6.89935
6.70659
6.51405
6.32179
6.1298
5.93807
5.74671
5.55592
5.36603
5.17748
4.99074
4.8062
4.62415
4.44468
4.26767
4.09277
3.91949
3.74727
3.57558
3.40398
3.23226
3.0604
2.88861
2.71726
2.54677
2.37757
2.20994
2.04409
1.88021
1.71836
1.55858
1.40103
1.246
1.09413
0.946111
0.802654
0.671781
0.539812
0.416666
0.43594
0.565446
0.694446
0.836171
0.984055
1.13682
1.29352
1.45346
1.61593
1.78026
1.94583
2.11229
2.27953
2.44758
2.6166
2.78675
2.95817
3.13092
3.30498
3.48025
3.65654
3.83365
4.01136
4.18946
4.36776
4.54615
4.72453
4.90288
5.08125
5.25971
5.43842
5.61756
5.79741
5.97822
6.16028
6.34382
6.52898
6.71577
6.90402
7.09341
7.28348
7.47371
7.66359
7.85274
8.04094
8.22822
8.41478
8.60098
8.78726
8.97399
9.16144
9.34974
9.53888
9.72875
9.91924
10.1102
10.3017
10.4936
10.6861
10.8789
11.0721
11.2655
11.4588
11.6519
11.8446
12.0371
12.2293
12.4215
12.614
12.8068
13.0002
13.1941
13.3885
13.5836
13.7793
13.9758
14.1732
14.3716
14.5711
14.7715
14.9729
15.1751
15.3782
15.5823
15.7875
15.9942
16.2024
16.4125
16.6243
16.8379
17.0529
17.2691
17.4859
17.7032
17.9207
18.1385
18.3568
18.576
18.7964
19.018
19.2406
19.4639
19.6873
19.9104
20.1331
20.3553
20.5774
20.7995
21.0218
21.2445
21.4675
21.6906
21.9137
22.1369
22.3602
22.5838
22.808
23.0328
23.258
23.4837
23.7095
23.9352
24.161
24.3871
24.6137
24.841
25.0692
25.298
25.5271
25.7565
25.986
26.2158
26.4461
26.6771
26.909
27.1417
27.3753
27.6096
27.8445
28.0799
28.3155
28.5513
28.7875
29.0242
29.2616
29.4999
29.7391
29.9791
30.2199
30.4615
30.7038
30.9469
31.1907
31.4351
31.6804
31.9266
32.1738
32.422
32.6711
32.9209
33.1711
33.4216
33.6725
33.924
34.1763
34.4293
34.6829
34.9365
35.1898
35.442
35.692
35.9377
36.1748
36.3964
36.5986
36.7891
36.9837
37.1945
37.4251
37.6742
37.9437
38.253
38.5951
38.9903
39.4358
39.829
40.2947
40.4165
40.9958
41.2794
41.8665
42.4084
42.8985
42.5875
42.6817
43.1738
43.4309
43.4183
43.4236
43.493
43.6209
43.7767
43.9419
44.0942
44.2128
44.2785
44.2673
44.143
43.8695
43.4164
42.7682
41.8541
40.6792
39.4666
37.3617
34.791
33.1871
27.6035
31.4372
29.0212
3.9085
28.7647
-845.146
-1703.91
-1630.65
-2757.08
-3700.66
-4399.6
-4910.33
-5257.86
-5448.99
-5578.05
-5733.17
-6276.54
-5962.41
-5579.63
-5860.07
-6208.17
-6229.68
-6162.82
-6090.02
-6008.91
-5921.01
-5826.49
-5726.08
-5619.98
-5509.11
-5394.31
-5275.36
-5151.17
-5023.72
-4892.53
-4758.77
-4622.26
-4483.5
-4342.95
-4200.43
-4055.94
-3909.73
-3761.82
-3612.56
-3462
-3310.04
-3156.93
-3002.75
-2847.21
-2690.21
-2531.95
-2372.7
-2212.61
-2051.13
-1887.69
-1722.1
-1554.57
-1385.65
-1216.23
-1047.28
-879.706
-713.926
-548.603
-539.562
-531.878
-524.367
-516.394
-508.759
-501.907
-495.936
-490.835
-486.618
-483.287
-480.709
-478.566
-476.751
-475.012
-473.094
-470.793
-467.936
-464.384
-460.078
-455
-449.158
-442.641
-435.743
-428.85
-422.243
-416.022
-410.124
-404.458
-399.039
-393.93
-389
-384.055
-378.944
-372.857
-546.722
-715.997
-887.216
-1060.22
-1233.66
-1407.23
-1580.57
-1753.49
-1925.59
-2096.43
-2265.77
-2433.31
-2599.04
-2762.96
-2925.16
-3085.74
-3244.73
-3402.16
-3558.03
-3712.37
-3865.08
-4015.97
-4164.98
-4311.87
-4456.62
-4599.23
-4739.43
-4876.96
-5011.62
-5142.76
-5270.21
-5393.13
-5511.67
-5625.71
-5734.71
-5838.03
-5935.37
-6026.41
-6110.49
-6187.58
-6256.7
-6309.56
-6355.21
-6363.63
-6244.59
-6168.82
-5973.28
-5797.2
-5621.72
-5414.94
-5120.29
-4711.24
-4156.2
-3603.92
-3004.23
-473.742
23.057
14.8869
20.3055
24.773
28.0195
29.8679
33.5827
35.4536
37.631
39.3168
40.5634
41.6436
42.4784
43.108
43.5585
43.8486
44.0072
44.0628
44.0425
43.9681
43.858
43.7293
43.598
43.4769
43.3798
43.2965
43.1937
42.9897
42.7609
42.6197
42.4893
42.1462
41.7484
41.2506
40.9343
40.4989
40.2213
39.8225
39.4503
39.0523
38.6845
38.3479
38.0385
37.7586
37.498
37.2543
37.0256
36.8085
36.5952
36.3766
36.1477
35.9095
35.6652
35.4171
35.1663
34.9134
34.6594
34.4057
34.1526
33.8997
33.6468
33.3944
33.1434
32.8935
32.644
32.3947
32.146
31.8985
31.6523
31.4072
31.1627
30.9189
30.676
30.4346
30.1945
29.9553
29.7162
29.4775
29.2394
29.0022
28.7656
28.5291
28.2928
28.0572
27.8228
27.5899
27.358
27.1265
26.895
26.6638
26.4332
26.2032
25.9736
25.7442
25.5148
25.2858
25.0578
24.8309
24.6046
24.378
24.1509
23.9231
23.6955
23.4687
23.243
23.0179
22.7931
22.568
22.343
22.1185
21.8949
21.6722
21.4501
21.2282
21.0063
20.7846
20.5635
20.343
20.1231
19.9033
19.6834
19.4633
19.2431
19.0234
18.8047
18.5872
18.3705
18.1543
17.9381
17.7216
17.5052
17.2894
17.0747
16.8615
16.6495
16.4385
16.228
16.0177
15.8078
15.5984
15.3899
15.1826
14.9766
14.7716
14.5675
14.3639
14.1608
13.9581
13.7562
13.5555
13.356
13.1578
12.9606
12.7641
12.568
12.3721
12.1766
11.9819
11.7883
11.5961
11.4052
11.2154
11.0265
10.8382
10.6502
10.4626
10.2754
10.0883
9.90152
9.71485
9.5283
9.34192
9.15579
8.97003
8.78463
8.59944
8.41414
8.22829
8.04146
7.85334
7.6638
7.47296
7.28112
7.08869
6.89603
6.70344
6.51106
6.31892
6.12701
5.93532
5.74394
5.5531
5.36316
5.17457
4.98783
4.80337
4.62147
4.44219
4.26539
4.09067
3.91751
3.7453
3.57351
3.40172
3.22973
3.05755
2.88543
2.71376
2.54299
2.37349
2.20547
2.03926
1.87505
1.7129
1.55291
1.3953
1.24042
1.08826
0.93863
0.791068
0.69334
0.534554
0.419522
0.416521
0.457166
0.49009
0.491084
0.499154
0.507452
0.513844
0.51935
0.524888
0.530725
0.535992
0.539996
0.542699
0.544367
0.545308
0.545756
0.54585
0.545653
0.545191
0.544479
0.543542
0.542409
0.541116
0.539701
0.538204
0.536663
0.535107
0.533562
0.53205
0.530591
0.529202
0.527896
0.526684
0.525575
0.524577
0.523691
0.522922
0.522269
0.521728
0.521295
0.520966
0.520732
0.520584
0.520512
0.520507
0.520559
0.520657
0.520793
0.520957
0.521143
0.521345
0.521556
0.52177
0.52198
0.522181
0.522365
0.522527
0.522661
0.522765
0.522836
0.522872
0.522875
0.52285
0.522804
0.522744
0.522678
0.522614
0.522563
0.522534
0.522535
0.522573
0.522653
0.522782
0.522967
0.523213
0.523529
0.523923
0.524406
0.524989
0.525682
0.526495
0.527434
0.528504
0.5297
0.531014
0.532425
0.533908
0.535428
0.536946
0.538421
0.539816
0.541106
0.542281
0.543341
0.544299
0.545167
0.54594
0.546579
0.546969
0.546863
0.545945
0.543716
0.539846
0.534558
0.52878
0.523681
0.518855
0.510631
0.490506
0.469574
0.50152
0.386788
0.42878
0.58408
0.68229
0.828543
0.978546
1.132
1.28866
1.44853
1.61101
1.77548
1.94113
2.10774
2.27515
2.44342
2.61269
2.78311
2.95481
3.12784
3.30217
3.47769
3.65421
3.83152
4.0094
4.18761
4.36601
4.54444
4.72284
4.90119
5.07952
5.25793
5.43655
5.6156
5.79534
5.97604
6.158
6.34145
6.52654
6.71325
6.90143
7.09072
7.28065
7.4707
7.66036
7.84926
8.03721
8.22426
8.41065
8.59675
8.783
8.96975
9.15725
9.3456
9.53476
9.7246
9.91501
10.1059
10.2972
10.4891
10.6814
10.8741
11.0673
11.2605
11.4537
11.6467
11.8394
12.0317
12.2239
12.4162
12.6087
12.8016
12.995
13.1889
13.3833
13.5783
13.7739
13.9702
14.1676
14.3659
14.5653
14.7657
14.9671
15.1693
15.3724
15.5764
15.7817
15.9883
16.1965
16.4065
16.6182
16.8317
17.0465
17.2625
17.4791
17.6962
17.9135
18.1312
18.3495
18.5687
18.7891
19.0108
19.2333
19.4565
19.6796
19.9024
20.1247
20.3467
20.5686
20.7907
21.0131
21.2359
21.4589
21.682
21.905
22.128
22.3511
22.5746
22.7985
23.0231
23.2483
23.4738
23.6995
23.9252
24.151
24.3769
24.6034
24.8307
25.0586
25.2872
25.5161
25.7453
25.9747
26.2046
26.435
26.6661
26.8978
27.1304
27.3637
27.5977
27.8324
28.0676
28.303
28.5388
28.7749
29.0116
29.249
29.4871
29.726
29.9656
30.2061
30.4474
30.6895
30.9324
31.1758
31.4199
31.6646
31.9102
32.1568
32.4044
32.6529
32.9019
33.1513
33.401
33.651
33.9015
34.1526
34.4042
34.656
34.9076
35.1584
35.4078
35.6548
35.8976
36.1338
36.3603
36.5763
36.7869
37.0012
37.2268
37.4675
37.7254
38.0023
38.3079
38.6402
39.0036
39.3982
39.7665
40.1619
40.4351
40.8656
41.1771
41.6686
42.0618
42.4004
42.5266
42.6635
42.8862
43.0841
43.1798
43.2551
43.3433
43.4554
43.5775
43.6967
43.7961
43.858
43.8641
43.7931
43.6177
43.3108
42.8448
42.2009
41.3492
40.25
38.9878
37.2638
35.0679
33.2316
29.6611
28.2725
25.0297
20.8537
15.1105
21.3523
-550.729
-3055.18
-3555.53
-4125.89
-4667
-5064.87
-5353.33
-5557.15
-5732.44
-5910.69
-6110.98
-6193.6
-6318.2
-6306.58
-6264.39
-6214.13
-6149.04
-6076.05
-5995.93
-5909.05
-5815.95
-5716.94
-5612.29
-5502.65
-5388.53
-5270.08
-5147.13
-5020.53
-4890.47
-4757.56
-4621.91
-4483.94
-4343.92
-4201.92
-4058
-3912.36
-3765.08
-3616.33
-3466.06
-3314.36
-3161.61
-3007.66
-2852.14
-2695.14
-2537.01
-2378.25
-2218.78
-2057.87
-1894.98
-1730.08
-1563.33
-1395.13
-1225.92
-1056.21
-885.852
-713.99
-710.402
-705.2
-698.314
-690.474
-682.247
-673.95
-665.869
-658.351
-651.691
-646.02
-641.116
-636.894
-633.197
-629.796
-626.493
-623.109
-619.544
-615.751
-611.725
-607.446
-603.045
-598.872
-595.302
-592.509
-590.379
-588.518
-586.432
-583.749
-580.159
-575.208
-568.51
-559.708
0.598803
-734.153
-907.318
-1081.18
-1254.21
-1427.01
-1599.39
-1771.26
-1942.36
-2112.44
-2281.18
-2448.19
-2613.32
-2776.58
-2938.03
-3097.76
-3255.86
-3412.42
-3567.45
-3720.95
-3872.86
-4023
-4171.31
-4317.58
-4461.67
-4603.53
-4742.96
-4879.69
-5013.49
-5143.84
-5270.51
-5392.88
-5510.81
-5624.02
-5732.02
-5834.23
-5930.22
-6019.45
-6101.45
-6176.14
-6243.4
-6295.55
-6319.95
-6309.26
-6253.38
-6181.71
-6049.53
-5921.22
-5783.49
-5628.74
-5423.05
-5103.49
-4518.02
-2508.75
-297.472
23.0303
36.7936
25.8837
23.5181
26.114
29.2901
31.4604
34.338
35.9881
37.7819
39.2346
40.3708
41.3484
42.1185
42.7127
43.1523
43.4531
43.6381
43.7289
43.7468
43.7104
43.6357
43.5371
43.4267
43.3137
43.2045
43.0913
42.9608
42.7817
42.5928
42.4163
42.2091
41.8958
41.5554
41.1413
40.8235
40.4384
40.1344
39.7649
39.4139
39.0493
38.7043
38.3803
38.0763
37.7945
37.5287
37.2771
37.0375
36.8071
36.5804
36.3514
36.1168
35.877
35.6333
35.3864
35.1368
34.8854
34.6333
34.3811
34.1291
33.877
33.6251
33.374
33.124
32.8747
32.6256
32.3767
32.1287
31.882
31.6364
31.3917
31.1475
30.9041
30.6618
30.4208
30.1809
29.9415
29.7024
29.4639
29.2262
28.9893
28.7528
28.5162
28.28
28.0446
27.8106
27.5779
27.346
27.1144
26.883
26.6519
26.4216
26.1918
25.9622
25.7325
25.503
25.2742
25.0465
24.8197
24.5934
24.3667
24.1395
23.912
23.6848
23.4584
23.2329
23.0079
22.783
22.5581
22.3334
22.1093
21.886
21.6633
21.4409
21.2188
20.9968
20.7754
20.5547
20.3346
20.115
19.8952
19.6752
19.4548
19.2345
19.0149
18.7964
18.5791
18.3627
18.1467
17.9304
17.714
17.4976
17.2819
17.0676
16.8547
16.6431
16.4322
16.2215
16.0111
15.8009
15.5914
15.3831
15.1761
14.9704
14.7656
14.5615
14.3578
14.1546
13.952
13.7503
13.5497
13.3504
13.1522
12.955
12.7584
12.5622
12.3664
12.1712
11.9767
11.7833
11.5911
11.4002
11.2102
11.0211
10.8327
10.6447
10.4571
10.2699
10.083
9.89628
9.70975
9.52337
9.33717
9.15122
8.96559
8.78026
8.59508
8.40974
8.22382
8.03692
7.84876
7.65924
7.46848
7.27677
7.08451
6.89204
6.69965
6.50746
6.31548
6.12367
5.93203
5.74065
5.54977
5.35977
5.17116
4.98444
4.80006
4.6183
4.43921
4.26258
4.08799
3.91487
3.74261
3.57066
3.39863
3.22633
3.05385
2.88146
2.70957
2.53861
2.36881
2.20046
2.03407
1.86975
1.70751
1.54727
1.38926
1.23333
1.07812
0.922021
0.746543
0.710737
0.492654
0.636373
0.811357
0.968042
1.12508
1.28317
1.44358
1.60642
1.77118
1.93669
2.10312
2.27038
2.43863
2.60801
2.77865
2.95065
3.12404
3.29875
3.47463
3.65148
3.82907
4.00714
4.1855
4.36397
4.54243
4.72082
4.89912
5.07739
5.25571
5.43425
5.6132
5.79284
5.97345
6.15531
6.33867
6.52366
6.71026
6.8983
7.08741
7.27714
7.46694
7.65632
7.84495
8.03265
8.21951
8.40578
8.59185
8.77814
8.96498
9.15258
9.34101
9.53019
9.72001
9.91033
10.1011
10.2923
10.484
10.6761
10.8688
11.0617
11.2549
11.448
11.6408
11.8334
12.0257
12.218
12.4104
12.603
12.7961
12.9895
13.1834
13.3778
13.5726
13.7681
13.9643
14.1615
14.3598
14.5592
14.7596
14.961
15.1632
15.3664
15.5705
15.7758
15.9824
16.1905
16.4004
16.612
16.8252
17.0399
17.2555
17.4719
17.6888
17.9059
18.1235
18.3418
18.5611
18.7816
19.0032
19.2256
19.4485
19.6712
19.8936
20.1156
20.3374
20.5592
20.7813
21.0038
21.2267
21.4497
21.6727
21.8957
22.1185
22.3414
22.5646
22.7883
23.0127
23.2378
23.4632
23.6889
23.9146
24.1403
24.3663
24.5927
24.8197
25.0474
25.2757
25.5044
25.7335
25.963
26.193
26.4235
26.6546
26.8863
27.1186
27.3516
27.5853
27.8197
28.0547
28.2901
28.5258
28.762
28.9987
29.236
29.474
29.7125
29.9518
30.1919
30.433
30.675
30.9176
31.1607
31.4043
31.6485
31.8935
32.1395
32.3864
32.6342
32.8826
33.1312
33.3801
33.6294
33.8791
34.1293
34.3797
34.6301
34.8801
35.1292
35.377
35.6227
35.8652
36.103
36.3348
36.561
36.7851
37.013
37.2499
37.499
37.7622
38.041
38.3412
38.661
39.0018
39.3629
39.7101
40.0761
40.3759
40.7564
41.0696
41.4782
41.8138
42.1222
42.3246
42.4966
42.6801
42.8535
42.9768
43.082
43.1827
43.2875
43.3894
43.4791
43.5434
43.5681
43.5372
43.433
43.2345
42.9201
42.4679
41.8627
41.0816
40.0943
38.9543
37.4891
35.6957
34.0792
31.2954
29.3957
26.2429
23.8795
26.1695
37.0992
21.0776
-345.521
-2623.02
-4475.51
-5042.19
-5352.3
-5557.11
-5713.75
-5854.26
-5986.04
-6122.47
-6199.21
-6258.64
-6271.58
-6249.71
-6200.62
-6137.29
-6066.6
-5988.59
-5903.41
-5811.54
-5713.5
-5609.7
-5500.73
-5387.06
-5269
-5146.66
-5020.64
-4891.23
-4758.88
-4623.81
-4486.35
-4346.76
-4205.16
-4061.67
-3916.47
-3769.65
-3621.24
-3471.14
-3319.57
-3166.84
-3012.7
-2856.94
-2699.81
-2541.86
-2383.5
-2224.23
-2063.39
-1900.61
-1735.83
-1569.1
-1400.7
-1230.69
-1059.68
-886.075
0.610901
0.584864
0.613607
0.639883
0.652948
0.660896
0.667875
0.675567
0.684404
0.692457
0.698463
0.702581
0.705373
0.707367
0.708892
0.710107
0.711058
0.711748
0.712173
0.712347
0.712299
0.712066
0.711691
0.711218
0.710683
0.710119
0.709551
0.709
0.708484
0.708019
0.707619
0.707295
0.707055
0.706906
0.70685
0.706888
0.70702
0.707242
0.707548
0.707931
0.70838
0.708886
0.709437
0.71002
0.710624
0.711237
0.711847
0.712445
0.71302
0.713566
0.714075
0.714538
0.714947
0.715294
0.715574
0.715778
0.715901
0.715937
0.715884
0.71574
0.715507
0.715191
0.7148
0.714341
0.713823
0.713257
0.712657
0.712032
0.71139
0.71074
0.71009
0.709447
0.708819
0.708213
0.707641
0.707116
0.706652
0.706266
0.705975
0.705794
0.705737
0.705814
0.706025
0.706364
0.706812
0.707338
0.707899
0.708444
0.70892
0.709278
0.709487
0.709543
0.709466
0.709299
0.709089