/*--------------------------------*- C++ -*----------------------------------*\
| =========                 |                                                 |
| \\      /  F ield         | OpenFOAM: The Open Source CFD Toolbox           |
|  \\    /   O peration     | Version:  2.2.1                                 |
|   \\  /    A nd           | Web:      www.OpenFOAM.org                      |
|    \\/     M anipulation  |                                                 |
\*---------------------------------------------------------------------------*/
FoamFile
{
    version     2.0;
    format      ascii;
    class       surfaceScalarField;
    location    "1.5e-05";
    object      phi;
}
// * * * * * * * * * * * * * * * * * * * * * * * * * * * * * * * * * * * * * //

dimensions      [0 3 -1 0 0 0 0];

internalField   nonuniform List<scalar> 
44563
(
-5.35661e-14
-1.74033e-14
-4.07715e-14
-1.27946e-14
-3.27542e-14
-8.01735e-15
-2.67628e-14
-5.99134e-15
-2.25197e-14
-4.24313e-15
-1.9538e-14
-2.98173e-15
-1.72382e-14
-2.29982e-15
-1.53682e-14
-1.86993e-15
-1.37813e-14
-1.58689e-15
-1.24535e-14
-1.32781e-15
-1.13488e-14
-1.10476e-15
-1.03846e-14
-9.64157e-16
-9.55552e-15
-8.29098e-16
-8.84589e-15
-7.0963e-16
-8.28591e-15
-5.59978e-16
-7.7785e-15
-5.07413e-16
-7.35977e-15
-4.1873e-16
-7.00809e-15
-3.51674e-16
-6.70301e-15
-3.05079e-16
-6.45831e-15
-2.44708e-16
-6.26487e-15
-1.93432e-16
-6.1416e-15
-1.2327e-16
-6.06157e-15
-8.00368e-17
-5.96618e-15
-9.53831e-17
-5.96372e-15
-2.46283e-18
-5.97774e-15
1.40236e-17
-6.08542e-15
1.07678e-16
-6.30307e-15
2.17647e-16
-6.52943e-15
2.26366e-16
-6.79254e-15
2.63106e-16
-7.15937e-15
3.66831e-16
-7.45445e-15
2.95083e-16
-7.9698e-15
5.15349e-16
-8.35846e-15
3.88662e-16
-9.11457e-15
7.56107e-16
-1.01092e-14
9.94617e-16
-1.12471e-14
1.1379e-15
-1.24864e-14
1.23935e-15
-1.40065e-14
1.52004e-15
-1.57056e-14
1.69916e-15
-1.77034e-14
1.9978e-15
-1.98465e-14
2.14303e-15
-2.24746e-14
2.62816e-15
-2.5749e-14
3.27442e-15
-2.99412e-14
4.19221e-15
-3.438e-14
4.43873e-15
-3.7241e-14
2.86098e-15
-3.77982e-14
5.57284e-16
-5.31858e-14
1.53875e-14
-7.57702e-14
2.25844e-14
-8.33401e-14
7.56986e-15
-9.7905e-14
1.4565e-14
-1.07707e-13
9.80241e-15
-1.23153e-13
1.54454e-14
-1.43909e-13
2.07562e-14
-1.7102e-13
2.71109e-14
-2.06735e-13
3.57145e-14
-2.54949e-13
4.82147e-14
-3.20441e-13
6.54923e-14
-3.70617e-13
5.01756e-14
-4.27388e-13
5.67707e-14
-3.25525e-13
-1.01863e-13
-2.74885e-13
-5.06395e-14
-2.56505e-13
-1.83802e-14
-1.53482e-13
-1.03023e-13
-1.85332e-13
3.18502e-14
-1.24815e-13
-6.05175e-14
-1.06623e-13
-1.8192e-14
-9.17668e-14
-1.48558e-14
-7.12307e-14
-2.05361e-14
-5.98848e-14
-1.13459e-14
-5.02851e-14
-9.59967e-15
-4.2664e-14
-7.62119e-15
-3.69945e-14
-5.66944e-15
-3.2233e-14
-4.76151e-15
-2.80643e-14
-4.16874e-15
-2.42e-14
-3.86425e-15
-2.05756e-14
-3.62439e-15
-1.71372e-14
-3.43849e-15
-1.37879e-14
-3.34927e-15
-1.05457e-14
-3.24222e-15
-7.56926e-15
-2.97642e-15
-4.83558e-15
-2.73368e-15
-3.01461e-15
-1.82098e-15
-1.57891e-15
-1.43569e-15
-1.87499e-15
2.96073e-16
-1.5917e-15
-2.83286e-16
-5.91821e-15
4.3265e-15
-1.41384e-14
8.22024e-15
-2.05618e-14
6.42337e-15
-2.10466e-14
4.84768e-16
-2.66101e-14
5.56355e-15
-1.87542e-14
-7.8559e-15
-2.37427e-14
4.98843e-15
-1.86079e-14
-5.13476e-15
-2.35235e-14
4.91558e-15
-2.17182e-14
-1.80524e-15
-2.24076e-14
6.89364e-16
-2.0363e-14
-2.04457e-15
-1.81444e-14
-2.21866e-15
-1.58369e-14
-2.30746e-15
-1.31921e-14
-2.6448e-15
-1.08971e-14
-2.29497e-15
-8.69474e-15
-2.20239e-15
-6.71695e-15
-1.97778e-15
-5.05057e-15
-1.66639e-15
-3.829e-15
-1.22157e-15
-3.09307e-15
-7.35919e-16
-2.70849e-15
-3.84579e-16
-2.47999e-15
-2.28501e-16
-2.30956e-15
-1.70427e-16
-2.17135e-15
-1.38208e-16
-2.05434e-15
-1.17015e-16
-1.95193e-15
-1.02412e-16
-1.86027e-15
-9.16626e-17
-1.7774e-15
-8.28717e-17
-1.70187e-15
-7.55319e-17
-1.63203e-15
-6.98405e-17
-1.56655e-15
-6.54763e-17
-1.50476e-15
-6.1789e-17
-1.44625e-15
-5.85155e-17
-1.39058e-15
-5.56749e-17
-1.33734e-15
-5.32381e-17
-1.2862e-15
-5.114e-17
-1.2368e-15
-4.94007e-17
-1.18886e-15
-4.79507e-17
-1.14234e-15
-4.65165e-17
-1.09736e-15
-4.49869e-17
-1.05373e-15
-4.36314e-17
-1.01105e-15
-4.26765e-17
-9.69146e-16
-4.19083e-17
-9.2818e-16
-4.09705e-17
-8.88285e-16
-3.98983e-17
-8.49262e-16
-3.90233e-17
-8.10805e-16
-3.84576e-17
-7.72851e-16
-3.79569e-17
-7.35557e-16
-3.72945e-17
-6.9904e-16
-3.65171e-17
-6.63234e-16
-3.5803e-17
-6.27997e-16
-3.52373e-17
-5.93239e-16
-3.4761e-17
-5.58978e-16
-3.42621e-17
-5.25311e-16
-3.36652e-17
-4.92317e-16
-3.29929e-17
-4.59953e-16
-3.23648e-17
-4.28057e-16
-3.18961e-17
-3.96479e-16
-3.15761e-17
-3.65216e-16
-3.12613e-17
-3.34393e-16
-3.08221e-17
-3.04122e-16
-3.02715e-17
-2.74382e-16
-2.97395e-17
-2.45064e-16
-2.93214e-17
-2.16082e-16
-2.89824e-17
-1.87469e-16
-2.86129e-17
-1.59318e-16
-2.81518e-17
-1.31664e-16
-2.76573e-17
-1.04419e-16
-2.72481e-17
-7.7433e-17
-2.6988e-17
-5.06246e-17
-2.6811e-17
-2.40585e-17
-2.65684e-17
2.09032e-18
-2.61508e-17
2.76749e-17
-2.55842e-17
5.26888e-17
-2.50117e-17
7.72718e-17
-2.45816e-17
1.01604e-16
-2.43329e-17
1.25775e-16
-2.41737e-17
1.49734e-16
-2.39612e-17
1.73343e-16
-2.36088e-17
1.9649e-16
-2.31479e-17
2.19178e-16
-2.26877e-17
2.41515e-16
-2.23368e-17
2.6364e-16
-2.21251e-17
2.8563e-16
-2.19929e-17
3.07459e-16
-2.18323e-17
3.29017e-16
-2.15623e-17
3.50201e-16
-2.11875e-17
3.70985e-16
-2.07872e-17
3.91439e-16
-2.04574e-17
4.11671e-16
-2.02353e-17
4.31745e-16
-2.00743e-17
4.51625e-16
-1.98793e-17
4.71209e-16
-1.95832e-17
4.90411e-16
-1.92008e-17
5.0923e-16
-1.88197e-17
5.27758e-16
-1.85292e-17
5.46115e-16
-1.83563e-17
5.64361e-16
-1.82452e-17
5.82464e-16
-1.81009e-17
6.00321e-16
-1.78563e-17
6.17835e-16
-1.75133e-17
6.3497e-16
-1.71349e-17
6.51764e-16
-1.67947e-17
6.68296e-16
-1.65327e-17
6.8464e-16
-1.63441e-17
7.00836e-16
-1.61956e-17
7.16888e-16
-1.60509e-17
7.32773e-16
-1.58848e-17
7.48457e-16
-1.56854e-17
7.63903e-16
-1.54486e-17
7.7908e-16
-1.51783e-17
7.93976e-16
-1.48957e-17
8.08612e-16
-1.46338e-17
8.23036e-16
-1.44227e-17
8.37305e-16
-1.42669e-17
8.51442e-16
-1.41372e-17
8.65425e-16
-1.39825e-17
8.79186e-16
-1.37619e-17
8.92658e-16
-1.3471e-17
9.0581e-16
-1.31532e-17
9.18681e-16
-1.28731e-17
9.31358e-16
-1.26786e-17
9.43927e-16
-1.25705e-17
9.56425e-16
-1.24983e-17
9.68814e-16
-1.23879e-17
9.80996e-16
-1.21816e-17
9.92868e-16
-1.18703e-17
1.00437e-15
-1.14988e-17
1.01551e-15
-1.11384e-17
1.02636e-15
-1.08509e-17
1.03702e-15
-1.06597e-17
1.04757e-15
-1.05445e-17
1.05802e-15
-1.04576e-17
1.06837e-15
-1.03509e-17
1.07857e-15
-1.01971e-17
1.08857e-15
-9.99857e-18
1.09834e-15
-9.7741e-18
1.10788e-15
-9.54207e-18
1.11719e-15
-9.30997e-18
1.12626e-15
-9.07357e-18
1.13509e-15
-8.82404e-18
1.14365e-15
-8.55939e-18
1.15194e-15
-8.29197e-18
1.15999e-15
-8.04679e-18
1.16784e-15
-7.84796e-18
1.17555e-15
-7.7067e-18
1.18316e-15
-7.61202e-18
1.19069e-15
-7.53316e-18
1.19813e-15
-7.4295e-18
1.20539e-15
-7.26484e-18
1.21241e-15
-7.02061e-18
1.21911e-15
-6.70162e-18
1.22545e-15
-6.33263e-18
1.2314e-15
-5.9475e-18
1.23698e-15
-5.57693e-18
1.24222e-15
-5.23941e-18
1.24716e-15
-4.93596e-18
1.25181e-15
-4.65198e-18
1.25617e-15
-4.36379e-18
1.26022e-15
-4.04706e-18
1.2639e-15
-3.68525e-18
1.26717e-15
-3.27219e-18
1.26999e-15
-2.81613e-18
1.27233e-15
-2.33741e-18
1.2742e-15
-1.86659e-18
1.27563e-15
-1.4375e-18
1.27672e-15
-1.08294e-18
1.27755e-15
-8.29856e-19
1.27824e-15
-6.93101e-19
1.27891e-15
-6.71617e-19
1.27966e-15
-7.4945e-19
1.28057e-15
-9.00305e-19
1.28166e-15
-1.09748e-18
1.28299e-15
-1.32525e-18
1.28458e-15
-1.59248e-18
1.28652e-15
-1.93981e-18
1.28895e-15
-2.43221e-18
1.29209e-15
-3.13313e-18
1.29614e-15
-4.0542e-18
1.30124e-15
-5.09616e-18
1.30725e-15
-6.01272e-18
1.31369e-15
-6.44166e-18
1.31969e-15
-6.00473e-18
1.32416e-15
-4.47209e-18
1.326e-15
-1.8374e-18
1.32445e-15
1.54834e-18
1.31864e-15
5.81161e-18
1.30557e-15
1.30735e-17
1.28396e-15
2.16055e-17
1.25435e-15
2.96117e-17
1.22966e-15
2.46923e-17
1.21387e-15
1.57861e-17
1.20171e-15
1.21633e-17
1.17836e-15
2.33462e-17
1.12959e-15
4.87717e-17
7.97318e-17
-1.14369e-15
7.58556e-17
-1.19075e-15
4.70652e-17
-1.21735e-15
2.65957e-17
-1.23727e-15
1.99204e-17
-1.26067e-15
2.34028e-17
-1.28709e-15
2.64241e-17
-1.30863e-15
2.15467e-17
-1.32466e-15
1.60342e-17
-1.33535e-15
1.06878e-17
-1.34097e-15
5.62171e-18
-1.34181e-15
8.42072e-19
-1.33868e-15
-3.13612e-18
-1.33276e-15
-5.91615e-18
-1.32564e-15
-7.12253e-18
-1.31873e-15
-6.9155e-18
-1.31296e-15
-5.77658e-18
-1.30863e-15
-4.32443e-18
-1.30557e-15
-3.06469e-18
-1.30328e-15
-2.28773e-18
-1.30121e-15
-2.06734e-18
-1.29889e-15
-2.31799e-18
-1.29602e-15
-2.8669e-18
-1.2925e-15
-3.52255e-18
-1.28839e-15
-4.11663e-18
-1.28386e-15
-4.52971e-18
-1.27916e-15
-4.70006e-18
-1.27454e-15
-4.62094e-18
-1.27021e-15
-4.3276e-18
-1.26633e-15
-3.88078e-18
-1.26298e-15
-3.35159e-18
-1.26017e-15
-2.80825e-18
-1.25786e-15
-2.30923e-18
-1.25596e-15
-1.89685e-18
-1.25437e-15
-1.59837e-18
-1.25294e-15
-1.42767e-18
-1.25155e-15
-1.38773e-18
-1.25008e-15
-1.47614e-18
-1.24839e-15
-1.68829e-18
-1.24637e-15
-2.01807e-18
-1.24391e-15
-2.45608e-18
-1.24092e-15
-2.99012e-18
-1.23732e-15
-3.60058e-18
-1.23306e-15
-4.26193e-18
-1.22811e-15
-4.941e-18
-1.22251e-15
-5.60056e-18
-1.21631e-15
-6.20408e-18
-1.20959e-15
-6.72185e-18
-1.20245e-15
-7.13843e-18
-1.195e-15
-7.45398e-18
-1.18731e-15
-7.68499e-18
-1.17945e-15
-7.86112e-18
-1.17143e-15
-8.0166e-18
-1.16325e-15
-8.18278e-18
-1.15487e-15
-8.38056e-18
-1.14625e-15
-8.61607e-18
-1.13737e-15
-8.88212e-18
-1.12821e-15
-9.16336e-18
-1.11877e-15
-9.44234e-18
-1.10906e-15
-9.70677e-18
-1.0991e-15
-9.95385e-18
-1.08891e-15
-1.01912e-17
-1.07848e-15
-1.04304e-17
-1.0678e-15
-1.06825e-17
-1.05685e-15
-1.09509e-17
-1.04562e-15
-1.12295e-17
-1.03411e-15
-1.15036e-17
-1.02236e-15
-1.17556e-17
-1.01039e-15
-1.19716e-17
-9.98238e-16
-1.21468e-17
-9.85949e-16
-1.22885e-17
-9.73535e-16
-1.24136e-17
-9.60994e-16
-1.25412e-17
-9.48309e-16
-1.26859e-17
-9.35457e-16
-1.28538e-17
-9.22416e-16
-1.30421e-17
-9.09178e-16
-1.32388e-17
-8.95744e-16
-1.34337e-17
-8.82122e-16
-1.36213e-17
-8.68317e-16
-1.38042e-17
-8.54328e-16
-1.39886e-17
-8.40143e-16
-1.41829e-17
-8.25751e-16
-1.43906e-17
-8.11142e-16
-1.46078e-17
-7.96317e-16
-1.4824e-17
-7.81291e-16
-1.5026e-17
-7.66087e-16
-1.52041e-17
-7.5073e-16
-1.53578e-17
-7.35235e-16
-1.54962e-17
-7.19598e-16
-1.56373e-17
-7.03797e-16
-1.58021e-17
-6.87789e-16
-1.60089e-17
-6.71522e-16
-1.6268e-17
-6.54942e-16
-1.65793e-17
-6.38011e-16
-1.69303e-17
-6.20713e-16
-1.72968e-17
-6.03064e-16
-1.76492e-17
-5.85105e-16
-1.79581e-17
-5.66899e-16
-1.82045e-17
-5.48509e-16
-1.83886e-17
-5.29974e-16
-1.8534e-17
-5.1129e-16
-1.86822e-17
-4.92408e-16
-1.88797e-17
-4.73248e-16
-1.9159e-17
-4.53724e-16
-1.95246e-17
-4.33775e-16
-1.99487e-17
-4.13394e-16
-2.03814e-17
-3.92624e-16
-2.07707e-17
-3.71537e-16
-2.10859e-17
-3.5021e-16
-2.13281e-17
-3.28685e-16
-2.15268e-17
-3.06964e-16
-2.17236e-17
-2.85014e-16
-2.19525e-17
-2.6279e-16
-2.22259e-17
-2.40258e-16
-2.25334e-17
-2.17408e-16
-2.2851e-17
-1.94252e-16
-2.31573e-17
-1.70808e-16
-2.34446e-17
-1.47087e-16
-2.3722e-17
-1.23078e-16
-2.40092e-17
-9.87542e-17
-2.43246e-17
-7.4077e-17
-2.4677e-17
-4.90163e-17
-2.50601e-17
-2.35613e-17
-2.54536e-17
2.27274e-18
-2.58323e-17
2.84499e-17
-2.61758e-17
5.49316e-17
-2.64813e-17
8.17006e-17
-2.67691e-17
1.08776e-16
-2.70759e-17
1.36214e-16
-2.74388e-17
1.64088e-16
-2.78737e-17
1.9245e-16
-2.83624e-17
2.21309e-16
-2.88595e-17
2.50624e-16
-2.93164e-17
2.8033e-16
-2.97077e-17
3.10377e-16
-3.00484e-17
3.4076e-16
-3.03826e-17
3.71517e-16
-3.07573e-17
4.02711e-16
-3.11945e-17
4.34399e-16
-3.16899e-17
4.66624e-16
-3.22258e-17
4.99408e-16
-3.27851e-17
5.32766e-16
-3.3357e-17
5.667e-16
-3.39321e-17
6.01196e-16
-3.44938e-17
6.36221e-16
-3.50237e-17
6.71744e-16
-3.5522e-17
7.07761e-16
-3.6017e-17
7.44316e-16
-3.65556e-17
7.8149e-16
-3.71737e-17
8.19368e-16
-3.78752e-17
8.58006e-16
-3.86358e-17
8.97437e-16
-3.94292e-17
9.37684e-16
-4.02472e-17
9.78784e-16
-4.11016e-17
1.0208e-15
-4.20112e-17
1.06379e-15
-4.29891e-17
1.10783e-15
-4.40458e-17
1.15304e-15
-4.52023e-17
1.19953e-15
-4.64958e-17
1.2475e-15
-4.79665e-17
1.29714e-15
-4.96407e-17
1.34867e-15
-5.15341e-17
1.40234e-15
-5.36648e-17
1.45841e-15
-5.60694e-17
1.51722e-15
-5.8811e-17
1.5792e-15
-6.19854e-17
1.64494e-15
-6.57346e-17
1.71519e-15
-7.02579e-17
1.79101e-15
-7.5816e-17
1.87374e-15
-8.27322e-17
1.96518e-15
-9.1434e-17
2.06774e-15
-1.02568e-16
2.18506e-15
-1.17313e-16
2.32319e-15
-1.38134e-16
2.49319e-15
-1.69997e-16
2.72101e-15
-2.2782e-16
3.10384e-15
-3.82838e-16
3.83628e-15
-7.32438e-16
5.0535e-15
-1.21722e-15
6.71596e-15
-1.66246e-15
8.69048e-15
-1.97452e-15
1.08904e-14
-2.19987e-15
1.31827e-14
-2.2923e-15
1.5823e-14
-2.64038e-15
1.81369e-14
-2.31387e-15
2.03489e-14
-2.21201e-15
2.24311e-14
-2.08219e-15
2.17247e-14
7.06359e-16
2.3565e-14
-1.84024e-15
1.86345e-14
4.93046e-15
2.37697e-14
-5.13515e-15
1.87992e-14
4.97045e-15
2.6609e-14
-7.80975e-15
2.11177e-14
5.49132e-15
2.06159e-14
5.01734e-16
1.42331e-14
6.38285e-15
6.07175e-15
8.16132e-15
1.6405e-15
4.43125e-15
1.90279e-15
-2.62294e-16
1.5759e-15
3.26891e-16
3.00557e-15
-1.42967e-15
4.80226e-15
-1.79669e-15
7.55139e-15
-2.74913e-15
1.05123e-14
-2.96093e-15
1.37573e-14
-3.24499e-15
1.70915e-14
-3.33415e-15
2.05255e-14
-3.43406e-15
2.41328e-14
-3.6073e-15
2.80165e-14
-3.88371e-15
3.22161e-14
-4.19953e-15
3.70307e-14
-4.81459e-15
4.28027e-14
-5.77206e-15
5.05411e-14
-7.73839e-15
6.00789e-14
-9.53779e-15
7.13669e-14
-1.1288e-14
9.22588e-14
-2.08919e-14
1.06619e-13
-1.43603e-14
1.25644e-13
-1.90252e-14
1.8662e-13
-6.09755e-14
1.54362e-13
3.22581e-14
2.659e-13
-1.11539e-13
2.72659e-13
-6.75866e-15
3.37703e-13
-6.50438e-14
4.30125e-13
-9.24223e-14
3.69497e-13
6.06281e-14
3.14488e-13
5.50086e-14
2.48691e-13
6.57976e-14
2.01395e-13
4.72959e-14
1.66695e-13
3.46994e-14
1.40484e-13
2.62114e-14
1.20452e-13
2.00317e-14
1.05596e-13
1.48562e-14
9.62795e-14
9.31668e-15
8.17837e-14
1.44958e-14
7.44228e-14
7.36091e-15
5.31664e-14
2.12564e-14
3.71753e-14
1.59911e-14
3.71307e-14
4.4572e-17
3.40152e-14
3.11552e-15
2.97124e-14
4.30284e-15
2.56204e-14
4.09194e-15
2.24237e-14
3.1967e-15
1.98385e-14
2.58517e-15
1.77154e-14
2.12316e-15
1.57158e-14
1.99961e-15
1.40002e-14
1.71556e-15
1.24524e-14
1.54778e-15
1.11819e-14
1.2705e-15
1.00018e-14
1.18018e-15
8.95279e-15
1.04897e-15
8.12978e-15
8.23017e-16
7.65293e-15
4.76849e-16
7.1029e-15
5.50029e-16
6.71195e-15
3.90954e-16
6.24848e-15
4.63473e-16
5.94835e-15
3.00128e-16
5.60564e-15
3.42704e-16
5.26772e-15
3.37926e-16
5.0352e-15
2.32516e-16
4.88913e-15
1.46067e-16
4.7492e-15
1.39933e-16
4.69343e-15
5.57676e-17
4.61665e-15
7.67815e-17
4.56593e-15
5.0719e-17
4.57655e-15
-1.06181e-17
4.62031e-15
-4.37576e-17
4.70977e-15
-8.94587e-17
4.81074e-15
-1.00974e-16
4.91295e-15
-1.02209e-16
5.0712e-15
-1.58247e-16
5.30013e-15
-2.28937e-16
5.5687e-15
-2.68565e-16
5.81474e-15
-2.46038e-16
6.0885e-15
-2.73765e-16
6.37531e-15
-2.86811e-16
6.75378e-15
-3.78471e-16
7.29775e-15
-5.43967e-16
8.10653e-15
-8.0878e-16
9.39608e-15
-1.28955e-15
1.15006e-14
-2.10454e-15
1.49654e-14
-3.46479e-15
2.06753e-14
-5.70984e-15
2.95217e-14
-8.84645e-15
4.47669e-14
-1.52452e-14
-2.57417e-14
7.40085e-17
-2.44156e-15
-6.9067e-18
-2.55313e-15
-9.46123e-17
-1.52247e-15
-1.58126e-16
5.33301e-16
-1.43089e-16
3.50707e-15
-6.92721e-17
7.34996e-15
1.84129e-17
1.2052e-14
9.36308e-17
1.74867e-14
1.49362e-16
2.35163e-14
1.88108e-16
3.00151e-14
2.15271e-16
3.68715e-14
2.36207e-16
4.39881e-14
2.54923e-16
5.12818e-14
2.73558e-16
5.86832e-14
2.92653e-16
6.6134e-14
3.11827e-16
7.3584e-14
3.30366e-16
8.09892e-14
3.47606e-16
8.83113e-14
3.63078e-16
9.55173e-14
3.76531e-16
1.0258e-13
3.8788e-16
1.09476e-13
3.97139e-16
1.1619e-13
4.04372e-16
1.22706e-13
4.09663e-16
1.29017e-13
4.13102e-16
1.35115e-13
4.14779e-16
1.40998e-13
4.14791e-16
1.46663e-13
4.13236e-16
1.52111e-13
4.10215e-16
1.57343e-13
4.05835e-16
1.62362e-13
4.002e-16
1.6717e-13
3.93414e-16
1.71772e-13
3.85577e-16
1.76172e-13
3.76781e-16
1.80372e-13
3.67111e-16
1.84379e-13
3.56647e-16
1.88195e-13
3.45461e-16
1.91826e-13
3.33617e-16
1.95274e-13
3.21172e-16
1.98545e-13
3.0818e-16
2.0164e-13
2.94687e-16
2.04563e-13
2.80737e-16
2.07318e-13
2.66368e-16
2.09907e-13
2.51616e-16
2.12333e-13
2.36514e-16
2.14598e-13
2.21093e-16
2.16703e-13
2.05382e-16
2.18652e-13
1.89407e-16
2.20444e-13
1.73196e-16
2.22083e-13
1.56773e-16
2.2357e-13
1.40162e-16
2.24905e-13
1.23387e-16
2.26089e-13
1.06468e-16
2.27125e-13
8.94292e-17
2.28011e-13
7.22904e-17
2.28749e-13
5.50717e-17
2.2934e-13
3.77931e-17
2.29784e-13
2.04729e-17
2.30081e-13
3.12839e-18
2.30232e-13
-1.42243e-17
2.30237e-13
-3.15694e-17
2.30095e-13
-4.88926e-17
2.29806e-13
-6.61821e-17
2.29371e-13
-8.34251e-17
2.28789e-13
-1.00611e-16
2.28059e-13
-1.1773e-16
2.27182e-13
-1.34774e-16
2.26155e-13
-1.51731e-16
2.24979e-13
-1.68593e-16
2.23652e-13
-1.85348e-16
2.22173e-13
-2.01982e-16
2.2054e-13
-2.18477e-16
2.18752e-13
-2.34809e-16
2.16808e-13
-2.50947e-16
2.14705e-13
-2.66854e-16
2.1244e-13
-2.8248e-16
2.10013e-13
-2.97762e-16
2.07419e-13
-3.12628e-16
2.04657e-13
-3.26985e-16
2.01723e-13
-3.40731e-16
1.98614e-13
-3.53745e-16
1.95328e-13
-3.65897e-16
1.9186e-13
-3.77044e-16
1.88208e-13
-3.87039e-16
1.84369e-13
-3.95736e-16
1.80338e-13
-4.02999e-16
1.76114e-13
-4.08711e-16
1.71691e-13
-4.12783e-16
1.67068e-13
-4.15166e-16
1.62242e-13
-4.15853e-16
1.57209e-13
-4.14881e-16
1.51968e-13
-4.12328e-16
1.46515e-13
-4.08286e-16
1.40849e-13
-4.02845e-16
1.34968e-13
-3.96052e-16
1.28874e-13
-3.87888e-16
1.22568e-13
-3.78237e-16
1.16055e-13
-3.66892e-16
1.09341e-13
-3.53578e-16
1.02438e-13
-3.38012e-16
9.53634e-14
-3.19972e-16
8.81388e-14
-2.9941e-16
8.07925e-14
-2.76616e-16
7.33595e-14
-2.52242e-16
6.58809e-14
-2.26923e-16
5.84041e-14
-2.04292e-16
5.09857e-14
-1.8773e-16
4.36869e-14
-1.88484e-16
3.65856e-14
-2.07245e-16
2.9753e-14
-2.29392e-16
2.32699e-14
-2.1392e-16
1.72196e-14
-1.48488e-16
1.17519e-14
-2.11178e-17
6.99827e-15
9.9957e-17
3.17131e-15
9.92126e-17
3.21251e-16
2.23916e-17
-1.64248e-15
-6.59139e-17
-2.62347e-15
-2.48547e-15
-3.05718e-14
-8.24263e-14
-3.13523e-14
-1.21158e-13
-3.13506e-14
-1.66749e-13
-3.06189e-14
-2.16035e-13
-2.93014e-14
-2.63559e-13
-2.6611e-14
-3.07984e-13
-2.31103e-14
-3.48772e-13
-1.89652e-14
-3.8546e-13
-1.43864e-14
-4.17736e-13
-9.60854e-15
-4.45623e-13
-4.81784e-15
-4.69399e-13
-1.13701e-16
-4.89516e-13
4.50059e-15
-5.06501e-13
9.04439e-15
-5.20767e-13
1.35391e-14
-5.32694e-13
1.80294e-14
-5.42656e-13
2.25153e-14
-5.50915e-13
2.69643e-14
-5.57695e-13
3.13184e-14
-5.63162e-13
3.54993e-14
-5.67421e-13
3.94176e-14
-5.70518e-13
4.29735e-14
-5.72435e-13
4.61093e-14
-5.73123e-13
4.87376e-14
-5.72376e-13
5.12623e-14
-5.70411e-13
5.40589e-14
-5.66808e-13
5.69605e-14
-5.6054e-13
5.94434e-14
-5.50656e-13
6.11087e-14
-5.3656e-13
6.16485e-14
-5.17516e-13
6.09025e-14
-4.92792e-13
5.92808e-14
-4.62109e-13
5.7188e-14
-4.24722e-13
5.44333e-14
-3.79543e-13
5.02295e-14
-3.26232e-13
4.39469e-14
-2.65837e-13
3.55914e-14
-2.01005e-13
-1.30787e-13
-2.47261e-15
3.42033e-17
-2.45492e-15
8.90932e-18
-2.44423e-15
9.23556e-18
-2.46401e-15
4.31913e-17
-2.48529e-15
4.77044e-17
-2.49532e-15
3.15801e-17
-2.49517e-15
1.5887e-17
-2.48757e-15
3.09454e-18
-2.47312e-15
-8.82893e-18
-2.45234e-15
-1.99406e-17
-2.42597e-15
-2.9515e-17
-2.39591e-15
-3.59789e-17
-2.36499e-15
-3.80483e-17
-2.33582e-15
-3.60872e-17
-2.31007e-15
-3.15292e-17
-2.28813e-15
-2.62654e-17
-2.26936e-15
-2.18291e-17
-2.25258e-15
-1.90666e-17
-2.2365e-15
-1.81458e-17
-2.22007e-15
-1.8746e-17
-2.20265e-15
-2.02873e-17
-2.18404e-15
-2.21358e-17
-2.16441e-15
-2.37445e-17
-2.14421e-15
-2.47347e-17
-2.12399e-15
-2.49231e-17
-2.10431e-15
-2.43029e-17
-2.08563e-15
-2.30061e-17
-2.06826e-15
-2.12466e-17
-2.05234e-15
-1.92719e-17
-2.03783e-15
-1.73179e-17
-2.02455e-15
-1.55852e-17
-2.01223e-15
-1.42201e-17
-2.00052e-15
-1.33133e-17
-1.98904e-15
-1.29041e-17
-1.97744e-15
-1.29896e-17
-1.96538e-15
-1.35375e-17
-1.95257e-15
-1.44967e-17
-1.93878e-15
-1.58057e-17
-1.92384e-15
-1.73975e-17
-1.90762e-15
-1.92037e-17
-1.89007e-15
-2.1154e-17
-1.87115e-15
-2.31788e-17
-1.85088e-15
-2.52097e-17
-1.8293e-15
-2.71821e-17
-1.80646e-15
-2.90413e-17
-1.78244e-15
-3.07465e-17
-1.7573e-15
-3.22764e-17
-1.73112e-15
-3.36314e-17
-1.70398e-15
-3.4832e-17
-1.67592e-15
-3.59136e-17
-1.64702e-15
-3.69201e-17
-1.61731e-15
-3.78915e-17
-1.58683e-15
-3.8858e-17
-1.55561e-15
-3.9835e-17
-1.52367e-15
-4.08228e-17
-1.49102e-15
-4.18111e-17
-1.45768e-15
-4.27861e-17
-1.42365e-15
-4.37381e-17
-1.38893e-15
-4.46643e-17
-1.35355e-15
-4.55722e-17
-1.31751e-15
-4.64733e-17
-1.28081e-15
-4.73793e-17
-1.24347e-15
-4.82949e-17
-1.20548e-15
-4.92151e-17
-1.16686e-15
-5.0127e-17
-1.1276e-15
-5.10137e-17
-1.08771e-15
-5.18611e-17
-1.04719e-15
-5.26644e-17
-1.00605e-15
-5.34293e-17
-9.64289e-16
-5.41735e-17
-9.21915e-16
-5.4917e-17
-8.78926e-16
-5.56771e-17
-8.35321e-16
-5.6461e-17
-7.91094e-16
-5.72698e-17
-7.4624e-16
-5.80938e-17
-7.00751e-16
-5.89217e-17
-6.54625e-16
-5.9746e-17
-6.0786e-16
-6.05671e-17
-5.60456e-16
-6.139e-17
-5.12415e-16
-6.22207e-17
-4.63739e-16
-6.30642e-17
-4.14427e-16
-6.39186e-17
-3.64475e-16
-6.47754e-17
-3.13878e-16
-6.56237e-17
-2.62628e-16
-6.64554e-17
-2.10717e-16
-6.72699e-17
-1.58138e-16
-6.8077e-17
-1.04883e-16
-6.88941e-17
-5.09431e-17
-6.97435e-17
3.691e-18
-7.06435e-17
5.90283e-17
-7.16056e-17
1.15079e-16
-7.26294e-17
1.71853e-16
-7.37022e-17
2.29357e-16
-7.47997e-17
2.876e-16
-7.58907e-17
3.46588e-16
-7.69453e-17
4.06331e-16
-7.79448e-17
4.66836e-16
-7.88899e-17
5.2811e-16
-7.98047e-17
5.90162e-16
-8.07318e-17
6.53003e-16
-8.17192e-17
7.16645e-16
-8.28005e-17
7.81101e-16
-8.39819e-17
8.46388e-16
-8.52355e-17
9.12518e-16
-8.65116e-17
9.79503e-16
-8.77561e-17
1.04735e-15
-8.8935e-17
1.11607e-15
-9.00459e-17
1.18565e-15
-9.11163e-17
1.25611e-15
-9.21876e-17
1.32745e-15
-9.32968e-17
1.39968e-15
-9.44596e-17
1.47281e-15
-9.56695e-17
1.54687e-15
-9.69058e-17
1.62186e-15
-9.81497e-17
1.69781e-15
-9.93945e-17
1.77473e-15
-1.00649e-16
1.85266e-15
-1.01932e-16
1.93159e-15
-1.03258e-16
2.01155e-15
-1.04633e-16
2.09254e-15
-1.06047e-16
2.17457e-15
-1.07483e-16
2.25766e-15
-1.08921e-16
2.34183e-15
-1.10349e-16
2.42712e-15
-1.11769e-16
2.51355e-15
-1.13203e-16
2.60116e-15
-1.14685e-16
2.68997e-15
-1.16247e-16
2.78e-15
-1.17899e-16
2.87125e-15
-1.19621e-16
2.96376e-15
-1.21365e-16
3.05753e-15
-1.23087e-16
3.15258e-15
-1.24765e-16
3.24895e-15
-1.26419e-16
3.34666e-15
-1.28099e-16
3.44576e-15
-1.29854e-16
3.54627e-15
-1.31709e-16
3.64824e-15
-1.33659e-16
3.75169e-15
-1.35681e-16
3.85667e-15
-1.37759e-16
3.9632e-15
-1.39884e-16
4.07132e-15
-1.42052e-16
4.18108e-15
-1.44255e-16
4.29254e-15
-1.46482e-16
4.40576e-15
-1.48739e-16
4.52081e-15
-1.51062e-16
4.63776e-15
-1.53505e-16
4.7567e-15
-1.56117e-16
4.87775e-15
-1.58913e-16
5.001e-15
-1.61884e-16
5.12658e-15
-1.65015e-16
5.25465e-15
-1.68317e-16
5.38537e-15
-1.71822e-16
5.51894e-15
-1.75578e-16
5.65558e-15
-1.79629e-16
5.79556e-15
-1.84027e-16
5.9392e-15
-1.8884e-16
6.08686e-15
-1.94155e-16
6.23897e-15
-2.00075e-16
6.39603e-15
-2.06704e-16
6.55866e-15
-2.14158e-16
6.72758e-15
-2.22591e-16
6.90372e-15
-2.32204e-16
7.08817e-15
-2.43269e-16
7.28234e-15
-2.5615e-16
7.48794e-15
-2.71344e-16
7.70722e-15
-2.89535e-16
7.94307e-15
-3.11658e-16
8.19933e-15
-3.38996e-16
8.48129e-15
-3.73398e-16
8.79644e-15
-4.17719e-16
9.15581e-15
-4.76679e-16
9.57622e-15
-5.5855e-16
1.00855e-14
-6.79313e-16
1.0732e-14
-8.74283e-16
1.15564e-14
-1.20722e-15
1.25459e-14
-1.72195e-15
1.36856e-14
-2.35695e-15
1.49963e-14
-2.97312e-15
1.64925e-14
-3.47071e-15
1.81224e-14
-3.82977e-15
1.99059e-14
-4.07582e-15
2.14759e-14
-4.21034e-15
2.31725e-14
-4.01049e-15
2.45819e-14
-3.62145e-15
2.52485e-14
-2.74874e-15
2.73635e-14
-1.40869e-15
2.62801e-14
-7.56815e-16
3.04132e-14
7.97407e-16
2.6718e-14
-1.44005e-15
3.10778e-14
6.10657e-16
2.40114e-14
-7.43313e-16
2.6901e-14
2.60174e-15
2.29455e-14
4.45726e-15
2.19758e-14
7.35248e-15
2.53793e-14
4.75789e-15
2.72551e-14
2.55536e-15
2.53816e-14
1.61125e-15
2.54495e-14
2.59017e-16
2.60763e-14
-2.05654e-15
2.82196e-14
-3.9399e-15
3.09299e-14
-5.4595e-15
3.4523e-14
-6.55399e-15
3.86927e-14
-7.41474e-15
4.34998e-14
-8.14117e-15
4.89362e-14
-8.8705e-15
5.50547e-14
-9.72581e-15
6.19606e-14
-1.07896e-14
6.99247e-14
-1.21636e-14
7.91691e-14
-1.4059e-14
9.01028e-14
-1.67058e-14
1.02636e-13
-2.0272e-14
1.17659e-13
-2.45608e-14
1.36818e-13
-3.04467e-14
1.53684e-13
-3.77581e-14
1.81694e-13
-4.237e-14
2.17835e-13
-5.51666e-14
2.24831e-13
-6.79705e-14
3.20585e-13
-6.34964e-14
3.21106e-13
-1.1206e-13
3.95235e-13
-8.0888e-14
4.24384e-13
-9.41928e-14
4.54342e-13
-1.2238e-13
5.28298e-13
-1.33273e-14
4.7593e-13
1.07376e-13
4.52897e-13
8.88302e-14
4.15589e-13
8.46039e-14
3.73158e-13
7.71307e-14
3.31955e-13
6.74147e-14
2.92779e-13
5.92078e-14
2.55308e-13
5.23263e-14
2.16453e-13
4.81719e-14
1.81155e-13
4.9794e-14
1.37332e-13
5.11838e-14
1.07604e-13
5.09841e-14
1.16e-13
7.59525e-15
9.68728e-14
1.91719e-14
9.28736e-14
7.11469e-15
8.4583e-14
1.25934e-14
7.70354e-14
1.16395e-14
7.02703e-14
9.96185e-15
6.41874e-14
8.66811e-15
5.87734e-14
7.53714e-15
5.41266e-14
6.64638e-15
5.00003e-14
5.84183e-15
4.64054e-14
5.14266e-15
4.31715e-14
4.50446e-15
4.03791e-14
3.97261e-15
3.79587e-14
3.4693e-15
3.58614e-14
2.92032e-15
3.39495e-14
2.38881e-15
3.24208e-14
2.07873e-15
3.10477e-14
1.76398e-15
2.99645e-14
1.54674e-15
2.89604e-14
1.3042e-15
2.81781e-14
1.12497e-15
2.75644e-14
9.5163e-16
2.70593e-14
7.37677e-16
2.66693e-14
5.36054e-16
2.64366e-14
3.72617e-16
2.62744e-14
2.17943e-16
2.62509e-14
1.00306e-16
2.63225e-14
-2.08834e-17
2.64696e-14
-1.57707e-16
2.67335e-14
-3.07681e-16
2.70832e-14
-4.3915e-16
2.7504e-14
-5.2179e-16
2.80435e-14
-6.4164e-16
2.87447e-14
-8.59503e-16
2.96093e-14
-1.09354e-15
3.05621e-14
-1.22132e-15
3.15404e-14
-1.22436e-15
3.25479e-14
-1.28131e-15
3.37676e-14
-1.50651e-15
3.54002e-14
-2.0111e-15
3.76387e-14
-2.7824e-15
4.06625e-14
-3.83264e-15
4.4569e-14
-5.196e-15
4.94918e-14
-7.02736e-15
5.56282e-14
-9.60118e-15
6.31549e-14
-1.32366e-14
7.26111e-14
-1.83026e-14
-2.50604e-14
-1.16596e-13
-2.69854e-14
-1.03372e-13
-2.12415e-14
-9.24951e-14
-1.68684e-14
-8.32701e-14
-1.34681e-14
-7.54051e-14
-1.08467e-14
-6.872e-14
-8.985e-15
-6.29112e-14
-7.67865e-15
-5.78104e-14
-6.68776e-15
-5.3319e-14
-5.81921e-15
-4.94071e-14
-5.01658e-15
-4.60809e-14
-4.29041e-15
-4.32756e-14
-3.63438e-15
-4.09265e-14
-3.05877e-15
-3.89262e-14
-2.56025e-15
-3.72668e-14
-2.16678e-15
-3.58437e-14
-1.84183e-15
-3.46236e-14
-1.57176e-15
-3.35856e-14
-1.34316e-15
-3.26975e-14
-1.13281e-15
-3.19587e-14
-9.32174e-16
-3.13452e-14
-7.3677e-16
-3.08626e-14
-5.6263e-16
-3.05583e-14
-3.99683e-16
-3.03575e-14
-2.03261e-16
-3.03434e-14
-6.83819e-20
-3.04761e-14
2.40329e-16
-3.07497e-14
4.91257e-16
-3.12355e-14
7.12127e-16
-3.19191e-14
9.4675e-16
-3.27538e-14
1.20157e-15
-3.38998e-14
1.44109e-15
-3.51603e-14
1.77576e-15
-3.68934e-14
2.12182e-15
-3.88148e-14
2.67753e-15
-4.10804e-14
3.26022e-15
-4.37413e-14
3.79877e-15
-4.68677e-14
4.36578e-15
-5.03871e-14
5.03941e-15
-5.44687e-14
5.78073e-15
-5.91075e-14
6.63667e-15
-6.45476e-14
7.58311e-15
-7.06926e-14
8.77315e-15
-7.75516e-14
1.01334e-14
-8.52225e-14
1.18631e-14
-9.37235e-14
1.29397e-14
-9.78845e-14
7.02202e-15
-1.17474e-13
2.01463e-14
-1.10562e-13
8.47558e-15
-1.40035e-13
5.20578e-14
-1.84652e-13
5.21869e-14
-2.20765e-13
5.06784e-14
-2.60302e-13
4.93394e-14
-2.98654e-13
5.3797e-14
-3.3887e-13
6.09727e-14
-3.81267e-13
6.9508e-14
-4.24947e-13
7.93941e-14
-4.63016e-13
8.62837e-14
-4.86012e-13
8.84881e-14
-5.34862e-13
9.90255e-14
-4.57402e-13
-2.06887e-14
-4.31885e-13
-1.27381e-13
-3.90647e-13
-9.18771e-14
-3.24338e-13
-8.46892e-14
-3.18386e-13
-1.08975e-13
-2.24826e-13
-6.17103e-14
-2.1814e-13
-6.72036e-14
-1.81628e-13
-5.47035e-14
-1.54048e-13
-4.24365e-14
-1.36853e-13
-3.77308e-14
-1.17748e-13
-3.04505e-14
-1.02774e-13
-2.45742e-14
-9.01957e-14
-2.01993e-14
-7.92589e-14
-1.66061e-14
-7.00349e-14
-1.39855e-14
-6.20827e-14
-1.2121e-14
-5.51736e-14
-1.07733e-14
-4.90635e-14
-9.73451e-15
-4.3615e-14
-8.88702e-15
-3.88035e-14
-8.16074e-15
-3.46139e-14
-7.4319e-15
-3.1017e-14
-6.57328e-15
-2.82739e-14
-5.47681e-15
-2.61232e-14
-3.97162e-15
-2.54658e-14
-2.09314e-15
-2.5388e-14
2.18294e-16
-2.72469e-14
1.57564e-15
-2.54365e-14
2.51609e-15
-2.19641e-14
4.74775e-15
-2.29182e-14
7.37754e-15
-2.69182e-14
4.48469e-15
-2.39882e-14
2.6336e-15
-3.10959e-14
-7.48175e-16
-2.67224e-14
6.14896e-16
-3.04147e-14
-1.44246e-15
-2.6289e-14
7.89865e-16
-2.73481e-14
-7.46158e-16
-2.52552e-14
-1.40355e-15
-2.45664e-14
-2.73331e-15
-2.31692e-14
-3.61586e-15
-2.14673e-14
-4.00945e-15
-1.98983e-14
-4.2138e-15
-1.81122e-14
-4.081e-15
-1.64792e-14
-3.83537e-15
-1.49799e-14
-3.4771e-15
-1.36662e-14
-2.98014e-15
-1.25239e-14
-2.36379e-15
-1.15322e-14
-1.72762e-15
-1.07056e-14
-1.21123e-15
-1.00573e-14
-8.76831e-16
-9.54689e-15
-6.8079e-16
-9.12582e-15
-5.59284e-16
-8.7659e-15
-4.76935e-16
-8.45053e-15
-4.1779e-16
-8.1687e-15
-3.73491e-16
-7.9126e-15
-3.38963e-16
-7.67689e-15
-3.11243e-16
-7.45793e-15
-2.88805e-16
-7.2528e-15
-2.70606e-16
-7.05903e-15
-2.55564e-16
-6.87488e-15
-2.4267e-16
-6.69919e-15
-2.3137e-16
-6.53082e-15
-2.21601e-16
-6.36864e-15
-2.13328e-16
-6.21185e-15
-2.06193e-16
-6.06008e-15
-1.99727e-16
-5.9129e-15
-1.937e-16
-5.76969e-15
-1.88195e-16
-5.62996e-15
-1.83362e-16
-5.49354e-15
-1.79107e-16
-5.3603e-15
-1.75146e-16
-5.22999e-15
-1.71286e-16
-5.10227e-15
-1.67614e-16
-4.97699e-15
-1.64307e-16
-4.85408e-15
-1.61374e-16
-4.73341e-15
-1.58619e-16
-4.61484e-15
-1.55863e-16
-4.49825e-15
-1.53105e-16
-4.38359e-15
-1.50461e-16
-4.27081e-15
-1.48021e-16
-4.15982e-15
-1.45757e-16
-4.05053e-15
-1.43546e-16
-3.94291e-15
-1.41284e-16
-3.83691e-15
-1.38986e-16
-3.7325e-15
-1.36783e-16
-3.6296e-15
-1.34788e-16
-3.5282e-15
-1.32977e-16
-3.42826e-15
-1.31198e-16
-3.32975e-15
-1.29332e-16
-3.23263e-15
-1.27397e-16
-3.13686e-15
-1.25515e-16
-3.04241e-15
-1.23771e-16
-2.94927e-15
-1.22129e-16
-2.8574e-15
-1.20484e-16
-2.76679e-15
-1.18776e-16
-2.67739e-15
-1.17061e-16
-2.58918e-15
-1.15455e-16
-2.50216e-15
-1.14016e-16
-2.4163e-15
-1.12678e-16