/*--------------------------------*- C++ -*----------------------------------*\
| =========                 |                                                 |
| \\      /  F ield         | OpenFOAM: The Open Source CFD Toolbox           |
|  \\    /   O peration     | Version:  2.2.1                                 |
|   \\  /    A nd           | Web:      www.OpenFOAM.org                      |
|    \\/     M anipulation  |                                                 |
\*---------------------------------------------------------------------------*/
FoamFile
{
    version     2.0;
    format      ascii;
    class       volVectorField;
    location    "1.5e-05";
    object      U;
}
// * * * * * * * * * * * * * * * * * * * * * * * * * * * * * * * * * * * * * //

dimensions      [0 1 -1 0 0 0 0];

internalField   nonuniform List<vector> 
22464
(
(-0.00199504 0.173251 -8.87243e-44)
(-0.0054371 0.119898 -4.39859e-45)
(-0.00641876 0.0911339 0)
(-0.00585735 0.0730913 -1.38951e-44)
(-0.00579386 0.0605198 -5.83552e-44)
(-0.0057562 0.051642 -2.79056e-44)
(-0.00541479 0.0452727 1.45545e-44)
(-0.00501737 0.0403495 1.23771e-44)
(-0.00461434 0.0363167 0)
(-0.0042826 0.0329335 -1.09487e-43)
(-0.00398176 0.0301024 -7.22539e-47)
(-0.0036371 0.027682 1.12403e-43)
(-0.00334335 0.025546 5.58037e-45)
(-0.00309675 0.0236771 4.23474e-45)
(-0.00295336 0.0220924 0)
(-0.0027478 0.0207527 1.03813e-43)
(-0.00262576 0.0195757 1.06258e-43)
(-0.00251691 0.0185822 -1.05001e-43)
(-0.00241036 0.0177361 -1.03897e-43)
(-0.00234376 0.0170221 0)
(-0.00229116 0.0164543 1.01659e-43)
(-0.00228693 0.0160407 1.01965e-43)
(-0.00226652 0.0157683 0)
(-0.00218269 0.0155539 -4.14761e-46)
(-0.00224236 0.015412 0)
(-0.00221144 0.0154226 9.54944e-44)
(-0.00231599 0.0155774 1.89476e-43)
(-0.00246471 0.0159789 4.65547e-46)
(-0.00251458 0.0165544 -1.18131e-51)
(-0.00260494 0.0172029 1.77795e-43)
(-0.0027903 0.0179922 8.89158e-44)
(-0.00276823 0.0188775 3.92068e-45)
(-0.00311621 0.0198693 -1.25836e-45)
(-0.00304107 0.0210548 -6.69061e-45)
(-0.00364086 0.0224984 9.34517e-44)
(-0.00416994 0.0247064 1.74916e-43)
(-0.00463512 0.0274484 8.40226e-44)
(-0.00509346 0.0305326 7.5448e-44)
(-0.00582229 0.0340643 1.44857e-43)
(-0.00650592 0.0382032 6.92732e-44)
(-0.00738896 0.0429254 -6.676e-45)
(-0.00815009 0.0482398 1.05594e-44)
(-0.00941176 0.0543261 2.94622e-44)
(-0.0111005 0.061926 9.29406e-45)
(-0.0135604 0.0716678 1.79401e-44)
(-0.0156857 0.0829731 -1.39068e-51)
(-0.0133799 0.0910951 -1.52355e-43)
(-0.0115134 0.0973693 1.40624e-43)
(-0.0307954 0.114591 8.43686e-44)
(-0.0456553 0.159097 -1.05253e-42)
(-0.0275364 0.206328 2.66912e-51)
(-0.0411903 0.234694 5.27091e-43)
(-0.0394102 0.265248 -6.0108e-43)
(-0.0513899 0.296793 -3.45213e-43)
(-0.0642357 0.341668 4.65386e-43)
(-0.0801944 0.401736 -2.53305e-51)
(-0.101981 0.481286 -1.99258e-42)
(-0.132874 0.590592 -1.68463e-42)
(-0.174662 0.739046 -2.26436e-42)
(-0.195154 0.893195 -7.54864e-42)
(-0.256398 0.981237 2.46001e-50)
(-0.259183 0.91606 1.13827e-41)
(-0.350069 0.755226 1.01806e-42)
(-0.21792 0.692031 -1.07103e-41)
(-0.0497867 0.572123 -1.48366e-42)
(-0.119189 0.43095 -1.34339e-42)
(-0.0119691 0.400446 -5.32114e-42)
(-0.033387 0.305186 -1.34148e-42)
(-0.0287497 0.255017 -6.29012e-44)
(-0.014846 0.211623 -8.04469e-43)
(-0.0172001 0.170402 -1.44797e-42)
(-0.0144089 0.142319 1.05563e-44)
(-0.0125404 0.120289 -8.1516e-45)
(-0.0115697 0.103077 -7.77893e-43)
(-0.0101683 0.0896007 -3.36695e-43)
(-0.00879382 0.0781378 -2.89135e-43)
(-0.00736257 0.0678153 -2.48337e-43)
(-0.00601203 0.0581738 1.93595e-43)
(-0.00471229 0.0490469 1.32377e-43)
(-0.00337777 0.0402673 -7.8622e-44)
(-0.00210515 0.0317306 -2.13196e-44)
(-0.00104819 0.0236023 -4.6726e-44)
(-7.25628e-05 0.0161641 -1.00522e-43)
(5.28289e-05 0.0100446 -2.68948e-45)
(0.000421975 0.00576514 -1.44185e-44)
(-0.000946245 0.00377161 -2.15113e-43)
(-0.000356359 0.00397683 -2.29071e-43)
(-0.00596634 0.00909029 -2.10874e-43)
(-0.0122333 0.0245922 1.92197e-43)
(-0.0127453 0.0436447 4.57488e-43)
(-0.00783583 0.0548917 4.56785e-43)
(-0.0136265 0.060898 6.61091e-43)
(-0.00053971 0.0602544 2.63714e-43)
(-0.0128461 0.0542464 4.95863e-43)
(-0.0032191 0.0553361 3.89583e-43)
(-0.0132897 0.054064 0)
(-0.00700579 0.0585948 -4.44354e-43)
(-0.00924867 0.0574922 -9.76428e-43)
(-0.00611164 0.0557413 -1.46103e-50)
(-0.00507779 0.0504423 4.00543e-43)
(-0.00414488 0.0443847 0)
(-0.00286858 0.0379621 -1.89721e-44)
(-0.00230995 0.0314926 1.025e-44)
(-0.0015576 0.0255888 -1.1582e-44)
(-0.00098642 0.0201284 0)
(-0.0006113 0.0153454 4.30222e-44)
(-0.000526801 0.011538 9.20336e-45)
(-0.000664126 0.00894073 -1.65763e-44)
(-0.000811038 0.00745679 -1.95738e-44)
(-0.000839998 0.00667128 -1.90272e-44)
(-0.00080571 0.00617893 -2.08971e-44)
(-0.000765974 0.00579372 -1.86481e-44)
(-0.000729401 0.00546796 -1.87521e-44)
(-0.000695766 0.00518582 -1.88352e-44)
(-0.000664346 0.00493616 -2.00289e-44)
(-0.000635712 0.00471144 0)
(-0.000610175 0.00450684 0)
(-0.00058643 0.0043183 -1.88843e-44)
(-0.000563437 0.00414288 -1.96233e-44)
(-0.00054124 0.00397866 0)
(-0.0005201 0.00382363 0)
(-0.000500239 0.00367594 -7.69175e-53)
(-0.000481515 0.00353451 -6.64333e-46)
(-0.000463411 0.00339895 -1.92241e-44)
(-0.000445455 0.00326894 -1.91509e-44)
(-0.000427684 0.00314343 0)
(-0.000410708 0.00302139 0)
(-0.000394815 0.00290258 -1.8963e-44)
(-0.000379466 0.00278729 -1.88531e-44)
(-0.000363991 0.00267546 0)
(-0.000348502 0.00256635 0)
(-0.000333591 0.00245932 0)
(-0.000319408 0.00235433 0)
(-0.000305492 0.00225163 -1.84397e-44)
(-0.000291488 0.00215112 -1.83558e-44)
(-0.000277518 0.00205243 -1.78601e-44)
(-0.000263843 0.00195531 -1.82898e-44)
(-0.000250528 0.00185976 0)
(-0.000237486 0.00176585 0)
(-0.000224624 0.00167359 -1.81338e-44)
(-0.000211883 0.00158294 -1.80894e-44)
(-0.000199282 0.00149379 0)
(-0.000186974 0.00140605 0)
(-0.000175103 0.00131966 1.83971e-44)
(-0.000163592 0.00123465 1.78882e-44)
(-0.000152141 0.00115107 -1.78016e-44)
(-0.000140531 0.00106883 -1.73586e-44)
(-0.000128871 0.000987727 0)
(-0.00011747 0.000907593 -3.83364e-46)
(-0.000106502 0.000828451 0)
(-9.58434e-05 0.000750459 0)
(-8.52502e-05 0.000673747 0)
(-7.46127e-05 0.000598283 -1.75632e-44)
(-6.40538e-05 0.000523932 -1.7546e-44)
(-5.37645e-05 0.000450567 1.7522e-44)
(-4.37993e-05 0.000378146 3.49521e-44)
(-3.40061e-05 0.000306685 3.48344e-44)
(-2.41738e-05 0.000236175 1.77072e-44)
(-1.42352e-05 0.000166565 -1.73724e-44)
(-4.33237e-06 9.77964e-05 -1.74063e-44)
(5.29398e-06 2.98942e-05 -1.71135e-44)
(1.45192e-05 -3.70253e-05 -1.74476e-44)
(2.34238e-05 -0.000102828 0)
(3.2227e-05 -0.000167476 3.14203e-46)
(4.10965e-05 -0.00023108 -1.72647e-44)
(5.00481e-05 -0.000293837 -2.96603e-46)
(5.89524e-05 -0.000355892 2.96657e-46)
(6.76461e-05 -0.000417234 -1.72286e-44)
(7.60448e-05 -0.000477737 0)
(8.41868e-05 -0.000537295 -1.7151e-44)
(9.2199e-05 -0.000595912 -1.70772e-44)
(0.00010022 -0.000653708 -1.67381e-44)
(0.000108324 -0.00071084 -3.39506e-44)
(0.000116453 -0.000767395 -2.70978e-46)
(0.00012446 -0.000823352 2.73628e-46)
(0.000132211 -0.000878616 -3.39379e-44)
(0.000139686 -0.00093309 -1.72051e-44)
(0.000147001 -0.000986745 -1.68947e-44)
(0.000154313 -0.00103962 -3.37066e-44)
(0.000161698 -0.0010918 -1.70743e-44)
(0.000169084 -0.00114334 -1.68294e-44)
(0.000176315 -0.00119424 -1.68268e-44)
(0.000183284 -0.00124442 1.68024e-44)
(0.000190021 -0.00129384 3.34971e-44)
(0.00019667 -0.00134249 3.33565e-44)
(0.00020337 -0.00139046 1.6848e-44)
(0.000210143 -0.00143783 -1.65807e-44)
(0.000216894 -0.0014847 -1.65712e-44)
(0.000223479 -0.00153105 -1.6343e-44)
(0.000229824 -0.00157676 -3.30992e-44)
(0.000235964 -0.00162171 -1.65e-44)
(0.000241994 -0.00166584 1.64228e-44)
(0.000248 -0.00170917 2.14689e-52)
(0.000253999 -0.00175184 -2.14138e-46)
(0.00025996 -0.00179398 2.07297e-46)
(0.00026585 -0.0018357 -1.61183e-44)
(0.000271654 -0.00187701 0)
(0.000277382 -0.00191785 -1.6032e-44)
(0.000283035 -0.00195813 -1.59876e-44)
(0.000288589 -0.00199777 -1.57279e-44)
(0.000294017 -0.00203675 -3.17335e-44)
(0.000299316 -0.00207508 -1.99091e-46)
(0.000304529 -0.00211284 1.91714e-46)
(0.000309711 -0.00215009 -3.12634e-44)
(0.000314896 -0.00218688 -1.5753e-44)
(0.000320062 -0.00222321 1.55262e-44)
(0.000325141 -0.002259 1.54847e-44)
(0.000330057 -0.00229419 -1.85512e-46)
(0.00033479 -0.00232871 -1.53594e-44)
(0.000339381 -0.00236258 -1.78892e-46)
(0.000343927 -0.00239587 1.51708e-44)
(0.000348508 -0.0024287 -1.50882e-44)
(0.000353142 -0.00246115 -5.61649e-52)
(0.000357773 -0.00249323 3.00056e-44)
(0.000362295 -0.00252486 1.6265e-46)
(0.00036662 -0.00255588 -1.49542e-44)
(0.00037072 -0.00258616 -1.47326e-44)
(0.000374639 -0.00261562 -2.96207e-44)
(0.000378468 -0.00264431 -1.55835e-46)
(0.00038229 -0.00267235 1.49287e-46)
(0.000386145 -0.00269989 -1.45061e-44)
(0.00039002 -0.00272707 1.43022e-44)
(0.000393861 -0.00275393 1.38229e-46)
(0.000397615 -0.00278046 -1.43818e-44)
(0.000401254 -0.00280658 0)
(0.000404777 -0.0028322 -1.43529e-44)
(0.000408208 -0.00285725 -1.28994e-46)
(0.000411561 -0.0028817 1.43252e-44)
(0.000414838 -0.00290551 -1.43144e-44)
(0.000418027 -0.00292866 -1.19318e-46)
(0.000421103 -0.00295117 1.16586e-46)
(0.00042406 -0.00297302 -2.85464e-44)
(0.000426914 -0.00299426 -1.43576e-44)
(0.000429702 -0.00301497 -1.42284e-44)
(0.000432466 -0.00303524 -1.42199e-44)
(0.000435236 -0.00305515 0)
(0.000438015 -0.00307476 -1.42828e-44)
(0.00044077 -0.00309406 -7.56083e-47)
(0.000443451 -0.00311297 1.44576e-44)
(0.000446005 -0.00313134 -1.45607e-44)
(0.000448392 -0.00314903 -1.47304e-44)
(0.000450601 -0.0031659 0)
(0.000452644 -0.00318186 -1.47628e-44)
(0.000454548 -0.00319689 -1.47763e-44)
(0.000456348 -0.00321101 -1.46944e-44)
(0.000458063 -0.00322428 -2.95015e-44)
(0.000459695 -0.00323674 -1.47269e-44)
(0.000461229 -0.00324842 -1.47004e-44)
(0.000462639 -0.00325929 -1.46693e-44)
(0.000463894 -0.00326926 -1.31152e-46)
(0.000464966 -0.00327825 -1.45674e-44)
(0.000465837 -0.00328615 -2.89635e-44)
(0.000466507 -0.00329287 -1.43663e-44)
(0.000466991 -0.0032984 -1.42214e-44)
(0.000467316 -0.00330279 -1.40522e-44)
(0.000467527 -0.00330619 -3.5291e-62)
(0.000467676 -0.00330879 -1.3684e-44)
(0.000467818 -0.00331085 -1.35122e-44)
(0.000467999 -0.00331266 -4.02689e-47)
(0.000468249 -0.00331448 -1.32225e-44)
(0.000468583 -0.00331654 -1.31799e-44)
(0.000469008 -0.00331899 -1.31392e-44)
(0.000469526 -0.00332194 5.24505e-47)
(0.00047015 -0.00332549 1.31175e-44)
(0.000470922 -0.00332983 1.31081e-44)
(0.000471924 -0.00333524 2.61062e-44)
(0.00047326 -0.00334223 1.29574e-44)
(0.000475024 -0.00335139 -1.29503e-44)
(0.000477217 -0.00336325 -2.02753e-46)
(0.000479675 -0.00337787 1.28427e-44)
(0.000482034 -0.0033945 1.16703e-46)
(0.00048379 -0.00341137 -1.23684e-44)
(0.000484366 -0.00342585 -1.24517e-44)
(0.000483356 -0.0034349 -7.23755e-47)
(0.000480701 -0.00343631 -3.88915e-47)
(0.000476765 -0.00342983 -1.30318e-47)
(0.000472376 -0.00341526 0)
(0.000469161 -0.00339384 5.97653e-47)
(0.000466059 -0.00336572 -1.42522e-46)
(0.000468378 -0.0033428 -2.23131e-46)
(0.000458521 -0.00332687 -4.89502e-45)
(0.000442617 -0.00329662 -4.64366e-45)
(0.000408938 -0.00322659 -3.88926e-46)
(0.000373752 -0.00314719 -1.74956e-45)
(0.00028993 -0.00279083 -1.14783e-45)
(-0.000293755 -0.00283922 1.40225e-45)
(-0.000379189 -0.0031914 -1.29545e-45)
(-0.000417278 -0.00327171 6.07523e-47)
(-0.000452607 -0.00334209 2.16391e-45)
(-0.000468885 -0.00336967 5.51953e-46)
(-0.000469787 -0.00339486 -1.34326e-46)
(-0.000472563 -0.00342292 -1.03907e-46)
(-0.000475488 -0.00344678 -3.61957e-47)
(-0.00047979 -0.00346664 7.56551e-47)
(-0.000484312 -0.00347925 5.49576e-47)
(-0.000488019 -0.00348265 7.84034e-47)
(-0.000490238 -0.00347645 -6.11378e-48)
(-0.000490591 -0.00346241 1.11699e-46)
(-0.000489169 -0.00344389 -1.15315e-46)
(-0.000486622 -0.00342475 0)
(-0.000483697 -0.00340793 -1.0153e-46)
(-0.000481045 -0.00339489 -2.0947e-49)
(-0.000479016 -0.00338559 -1.28661e-44)
(-0.00047767 -0.00337898 -1.01784e-49)
(-0.000476856 -0.0033736 1.32222e-44)
(-0.000476316 -0.00336805 -1.32628e-44)
(-0.000475795 -0.00336134 -1.32998e-44)
(-0.000475102 -0.00335297 1.73275e-51)
(-0.000474125 -0.00334291 -1.35192e-44)
(-0.000472839 -0.00333154 -2.70854e-44)
(-0.000471289 -0.00331943 -2.1357e-51)
(-0.000469567 -0.00330724 1.37311e-44)
(-0.000467785 -0.0032956 4.61189e-47)
(-0.000466051 -0.00328496 4.15545e-47)
(-0.000464452 -0.00327565 3.75394e-47)
(-0.000463047 -0.00326776 1.36531e-44)
(-0.000461864 -0.00326125 1.3663e-44)
(-0.000460901 -0.00325594 -1.36824e-44)
(-0.000460133 -0.00325155 -2.74294e-44)
(-0.00045952 -0.00324776 -1.37631e-44)
(-0.000459007 -0.00324421 8.69103e-47)
(-0.000458539 -0.00324056 -1.39152e-44)
(-0.000458063 -0.00323647 -1.40177e-44)
(-0.000457534 -0.00323164 -1.41325e-44)
(-0.000456907 -0.00322577 -2.8504e-44)
(-0.000456145 -0.0032186 -1.44293e-44)
(-0.000455215 -0.00320995 -1.44633e-44)
(-0.000454089 -0.00319965 -1.45338e-44)
(-0.000452749 -0.00318765 0)
(-0.000451178 -0.00317396 -1.45054e-44)
(-0.000449367 -0.00315868 -1.45375e-44)
(-0.000447318 -0.00314198 1.44811e-44)
(-0.000445042 -0.0031241 8.21171e-47)
(-0.000442564 -0.00310526 -1.43522e-44)
(-0.000439915 -0.00308569 0)
(-0.00043713 -0.00306555 -1.42893e-44)
(-0.000434246 -0.00304493 -1.43002e-44)
(-0.000431292 -0.00302387 -1.42164e-44)
(-0.000428283 -0.00300232 -2.87824e-44)
(-0.000425226 -0.00298022 -1.23656e-46)
(-0.00042211 -0.00295749 1.24244e-46)
(-0.00041892 -0.00293408 -1.45711e-44)
(-0.000415638 -0.00290998 1.46184e-44)
(-0.00041225 -0.00288518 1.29833e-46)
(-0.000408749 -0.00285972 -1.46952e-44)
(-0.000405139 -0.00283361 0)
(-0.00040143 -0.00280686 -1.47619e-44)
(-0.000397633 -0.00277946 -1.39167e-46)
(-0.000393757 -0.00275139 1.49479e-44)
(-0.000389803 -0.00272263 -1.48141e-44)
(-0.000385764 -0.00269319 -1.4227e-46)
(-0.000381633 -0.0026631 1.44982e-46)
(-0.000377404 -0.00263241 -2.95301e-44)
(-0.000373073 -0.00260122 -1.48979e-44)
(-0.000368648 -0.0025696 -1.47343e-44)
(-0.000364143 -0.0025376 -1.61365e-46)
(-0.000359579 -0.00250525 2.95178e-44)
(-0.000354966 -0.00247253 3.43389e-53)
(-0.000350314 -0.00243942 -1.48335e-44)
(-0.000345621 -0.00240586 1.48798e-44)
(-0.000340875 -0.00237181 1.71985e-46)
(-0.00033606 -0.00233728 -1.49803e-44)
(-0.000331166 -0.00230224 1.79855e-46)
(-0.000326193 -0.00226671 1.50994e-44)
(-0.000321144 -0.00223069 1.51686e-44)
(-0.000316026 -0.00219416 -1.50524e-44)
(-0.000310844 -0.0021571 -3.06348e-44)
(-0.000305603 -0.00211952 -1.93194e-46)
(-0.000300297 -0.0020814 1.95064e-46)
(-0.000294917 -0.00204276 -3.10625e-44)
(-0.000289454 -0.00200364 -1.58062e-44)
(-0.000283905 -0.0019641 -1.5688e-44)
(-0.000278272 -0.00192415 -1.57854e-44)
(-0.000272567 -0.00188381 0)
(-0.000266798 -0.00184304 -1.6026e-44)
(-0.000260974 -0.00180177 -2.17861e-46)
(-0.000255091 -0.00175988 2.18314e-46)
(-0.000249144 -0.00171725 6.10681e-53)
(-0.000243119 -0.00167378 1.6517e-44)
(-0.000237 -0.00162942 -1.65923e-44)
(-0.000230772 -0.00158418 -3.32841e-44)
(-0.00022442 -0.00153814 -1.68977e-44)
(-0.000217935 -0.00149139 -1.66953e-44)
(-0.000211314 -0.00144408 -1.67237e-44)
(-0.000204566 -0.00139629 1.65252e-44)
(-0.000197712 -0.00134804 3.36699e-44)
(-0.000190782 -0.00129928 3.38335e-44)
(-0.0001838 -0.00124986 1.7001e-44)
(-0.000176775 -0.00119963 -1.70711e-44)
(-0.000169692 -0.00114844 -1.71133e-44)
(-0.000162514 -0.00109623 -1.68795e-44)
(-0.0001552 -0.00104302 -3.42086e-44)
(-0.000147716 -0.00098892 -1.70724e-44)
(-0.000140058 -0.000934068 -1.67786e-44)
(-0.000132248 -0.000878581 -3.40536e-44)
(-0.000124325 -0.000822521 -2.75247e-46)
(-0.000116329 -0.000765877 2.77236e-46)
(-0.000108277 -0.000708589 -3.413e-44)
(-0.000100163 -0.000650585 -1.73623e-44)
(-9.19627e-05 -0.000591817 -1.70971e-44)
(-8.36485e-05 -0.00053227 -1.71077e-44)
(-7.52044e-05 -0.000471953 0)
(-6.66297e-05 -0.000410876 -1.7142e-44)
(-5.79368e-05 -0.000349024 -3.01682e-46)
(-4.91381e-05 -0.000286355 3.06555e-46)
(-4.02428e-05 -0.000222806 -1.72487e-44)
(-3.12493e-05 -0.000158318 -3.13133e-46)
(-2.21483e-05 -9.28703e-05 0)
(-1.29251e-05 -2.64775e-05 -1.73085e-44)
(-3.55839e-06 4.08079e-05 -1.76385e-44)
(5.96815e-06 0.000108934 -1.73241e-44)
(1.56617e-05 0.00017788 -1.73512e-44)
(2.55088e-05 0.000247675 1.70545e-44)
(3.54784e-05 0.000318404 3.49111e-44)
(4.55396e-05 0.000390177 3.50278e-44)
(5.56811e-05 0.00046309 1.75591e-44)
(6.5929e-05 0.000537189 -1.75856e-44)
(7.63375e-05 0.000612451 -1.75983e-44)
(8.69542e-05 0.000688801 0)
(9.77915e-05 0.000766152 0)
(0.00010882 0.000844448 0)
(0.000119989 0.000923711 3.8522e-46)
(0.000131269 0.00100403 0)
(0.000142665 0.00108553 -1.82682e-44)
(0.000154211 0.00116837 -1.79402e-44)
(0.00016594 0.00125261 1.79947e-44)
(0.000177861 0.00133832 1.76281e-44)
(0.000189964 0.00142548 0)
(0.000202251 0.00151406 0)
(0.00021475 0.00160403 -1.8101e-44)
(0.000227497 0.00169534 -1.8129e-44)
(0.0002405 0.00178801 0)
(0.000253723 0.00188209 0)
(0.000267119 0.00197768 -1.83136e-44)
(0.000280668 0.00207494 -1.88505e-44)
(0.000294404 0.00217405 -1.84541e-44)
(0.000308392 0.00227515 -1.85148e-44)
(0.000322682 0.00237835 0)
(0.00033729 0.00248372 0)
(0.000352208 0.00259136 0)
(0.000367443 0.00270142 0)
(0.000383025 0.00281411 -1.88159e-44)
(0.000398998 0.0029297 -1.88904e-44)
(0.00041538 0.0030485 0)
(0.000432186 0.00317089 0)
(0.000449449 0.00329734 -1.9136e-44)
(0.000467235 0.00342835 -1.92039e-44)
(0.000485636 0.00356452 6.62338e-46)
(0.000504739 0.0037065 7.64495e-53)
(0.000524644 0.0038551 0)
(0.000545466 0.00401133 0)
(0.000567343 0.00417653 -1.94924e-44)
(0.000590434 0.00435243 -2.04594e-44)
(0.000614917 0.00454132 0)
(0.000641043 0.00474616 0)
(0.000669201 0.00497091 -1.99063e-44)
(0.000699936 0.0052209 -2.12874e-44)
(0.00073378 0.00550353 -2.16022e-44)
(0.000770879 0.00582905 -2.20621e-44)
(0.00081073 0.00621355 -2.07483e-44)
(0.000844979 0.00670512 -2.5091e-44)
(0.000816542 0.00748748 -2.59288e-44)
(0.000670494 0.00896371 -1.6462e-44)
(0.000532953 0.0115503 3.00702e-46)
(0.000615335 0.0153473 4.28947e-44)
(0.000987861 0.0201215 0)
(0.00155697 0.0255743 1.15627e-44)
(0.00230909 0.0314703 -1.02332e-44)
(0.00286845 0.0379311 1.88756e-44)
(0.00413397 0.0443555 0)
(0.0050793 0.0504154 4.29046e-43)
(0.00607291 0.0557567 1.16785e-50)
(0.00926953 0.0575281 -9.77604e-43)
(0.00697569 0.0586655 -5.56443e-43)
(0.0133151 0.0541494 0)
(0.00322575 0.055414 3.90731e-43)
(0.0128445 0.054334 2.33414e-43)
(0.000596146 0.0603059 6.38045e-43)
(0.0135716 0.0609965 4.303e-43)
(0.00787676 0.0550455 4.58652e-43)
(0.0127298 0.043858 3.06734e-43)
(0.0122157 0.02492 -4.53637e-44)
(0.00611066 0.00933781 -2.06564e-43)
(0.000394942 0.0040811 -2.91125e-43)
(0.000978952 0.00379667 -2.36803e-43)
(-0.000421238 0.00574555 1.47056e-44)
(-4.02909e-05 0.0099863 2.33601e-45)
(4.32956e-05 0.0160997 -1.23149e-43)
(0.00104966 0.0235326 -4.64823e-44)
(0.00208671 0.0316501 -1.22904e-44)
(0.00337522 0.0401665 -7.87388e-44)
(0.00469751 0.04892 1.37766e-43)
(0.00600648 0.058016 1.8223e-43)
(0.00732127 0.0676649 -2.31643e-43)
(0.00874988 0.0780491 -2.88991e-43)
(0.0101164 0.089632 -3.37647e-43)
(0.0114908 0.103331 -7.85735e-43)
(0.0124847 0.120813 6.12915e-45)
(0.0145494 0.142884 -1.36372e-44)
(0.0173046 0.170895 -1.45984e-42)
(0.0145845 0.212427 -1.35979e-42)
(0.0292573 0.255584 7.51497e-44)
(0.0326759 0.306316 -1.61708e-42)
(0.011961 0.402774 -5.39302e-42)
(0.120442 0.434474 1.37915e-42)
(0.046497 0.588554 1.64434e-42)
(0.230105 0.693486 -1.06615e-41)
(0.349028 0.775696 -1.16432e-42)
(0.258202 0.926741 1.15239e-41)
(0.257489 0.984816 -1.81263e-50)
(0.198416 0.884009 -7.47578e-42)
(0.17261 0.722712 -2.835e-42)
(0.129551 0.575152 -1.36909e-42)
(0.0991079 0.468779 -1.96053e-42)
(0.0779189 0.391854 3.3056e-51)
(0.0624705 0.333891 5.40205e-43)
(0.0499954 0.290708 -4.79129e-43)
(0.0382824 0.260477 -2.95733e-43)
(0.0407033 0.230528 4.50387e-43)
(0.0266018 0.202744 -2.1288e-51)
(0.0440858 0.157391 -8.23026e-43)
(0.0316524 0.113524 -2.48152e-43)
(0.0108799 0.0966134 -1.0229e-43)
(0.0136826 0.0904254 -1.42012e-43)
(0.0154349 0.0822401 2.82698e-52)
(0.013395 0.0712066 9.49857e-45)
(0.0109943 0.0617077 -9.52092e-45)
(0.00936525 0.054266 4.69908e-44)
(0.00813472 0.0482589 -1.05578e-44)
(0.00739355 0.0429634 6.67265e-45)
(0.00651642 0.0382148 5.26641e-44)
(0.0058302 0.0340171 1.2894e-43)
(0.00508749 0.0304087 7.25836e-44)
(0.00462261 0.0272279 7.27951e-44)
(0.00414859 0.0243593 1.6262e-43)
(0.0036078 0.0219891 8.4066e-44)
(0.00300433 0.0203486 8.6373e-44)
(0.00298283 0.0190092 8.18084e-44)
(0.00267918 0.0178299 8.4022e-44)
(0.00265964 0.0167127 8.35237e-44)
(0.00236658 0.0157555 0)
(0.00234052 0.0148915 0)
(0.00225005 0.0140184 3.51307e-52)
(0.00205167 0.0132964 0)
(0.00190615 0.0128068 0)
(0.00187644 0.0124426 0)
(0.00176561 0.0122047 0)
(0.00179315 0.0120207 0)
(0.00176524 0.011864 7.44128e-46)
(0.00170611 0.0118169 0)
(0.00169638 0.0118897 0)
(0.00169047 0.0120698 0)
(0.00173098 0.0123129 0)
(0.00178217 0.0125687 0)
(0.00180004 0.0128972 1.36531e-45)
(0.00183511 0.0133765 1.01966e-43)
(0.00191257 0.0139815 1.00808e-43)
(0.00203036 0.0146037 2.40483e-45)
(0.00208734 0.015234 2.10438e-45)
(0.00221785 0.015898 1.05446e-43)
(0.00232444 0.0166787 1.04269e-43)
(0.00244985 0.0177294 0)
(0.00257292 0.0192583 7.38266e-45)
(0.00259607 0.0216633 0)
(0.00244493 0.0256359 -5.92008e-44)
(0.00202011 0.0322485 -1.10986e-43)
(0.00122653 0.0431756 -4.36546e-44)
(0.000479896 0.0617708 5.59282e-45)
(-0.00220891 0.0969034 8.12312e-45)
(-0.0102243 0.161988 1.77142e-43)
(0.000496828 -0.00639589 5.85822e-45)
(0.000561632 -0.00686516 0)
(0.00048493 -0.00419261 2.22279e-46)
(0.000247924 0.00123979 0)
(0.000145274 0.00924543 0)
(1.35736e-05 0.0194328 0)
(-0.000106938 0.0317416 0)
(-0.000211046 0.045897 0)
(-0.000300756 0.0615921 0)
(-0.00037975 0.0785229 0)
(-0.000450703 0.0964042 0)
(-0.000516455 0.11498 -2.70563e-47)
(-0.000579977 0.134029 -1.63997e-49)
(-0.00064315 0.153365 3.73775e-51)
(-0.000705948 0.172832 5.19705e-49)
(-0.000766995 0.192295 2.1866e-49)
(-0.000824525 0.211639 0)
(-0.000877035 0.230765 0)
(-0.00092358 0.249585 -4.0548e-50)
(-0.00096377 0.26803 -2.17925e-50)
(-0.000997627 0.286042 -6.39534e-51)
(-0.0010254 0.303574 1.48598e-50)
(-0.00104743 0.320593 0)
(-0.00106405 0.337073 -3.773e-51)
(-0.00107558 0.353 0)
(-0.00108231 0.368363 8.2487e-52)
(-0.00108452 0.383159 8.2922e-52)
(-0.00108248 0.397387 0)
(-0.00107646 0.411051 -1.03064e-52)
(-0.00106673 0.424158 -1.0205e-52)
(-0.00105359 0.436716 0)
(-0.00103731 0.448735 0)
(-0.00101815 0.460225 0)
(-0.000996367 0.471196 0)
(-0.000972194 0.481661 0)
(-0.000945849 0.491629 0)
(-0.000917528 0.501111 0)
(-0.000887407 0.510118 0)
(-0.000855647 0.51866 0)
(-0.000822389 0.526744 0)
(-0.000787766 0.53438 0)
(-0.000751895 0.541576 0)
(-0.00071488 0.548338 0)
(-0.00067682 0.554674 0)
(-0.000637805 0.560589 0)
(-0.000597917 0.566089 0)
(-0.000557236 0.571178 0)
(-0.000515831 0.575862 0)
(-0.000473774 0.580143 0)
(-0.000431132 0.584025 0)
(-0.000387968 0.587512 0)
(-0.000344345 0.590606 0)
(-0.000300318 0.59331 0)
(-0.00025595 0.595626 0)
(-0.000211295 0.597554 0)
(-0.000166405 0.599098 0)
(-0.000121332 0.600257 0)
(-7.6129e-05 0.601034 0)
(-3.08394e-05 0.601427 0)
(1.44931e-05 0.601439 0)
(5.98242e-05 0.601068 0)
(0.000105116 0.600315 0)
(0.000150334 0.599178 0)
(0.000195449 0.597657 0)
(0.000240427 0.595751 0)
(0.00028524 0.593459 0)
(0.00032987 0.590777 0)
(0.000374288 0.587704 0)
(0.000418469 0.584238 0)
(0.000462388 0.580374 0)
(0.00050601 0.576109 0)
(0.000549294 0.57144 0)
(0.000592189 0.566361 0)
(0.000634624 0.560867 0)
(0.000676509 0.554952 0)
(0.000717733 0.548611 0)
(0.00075815 0.541836 0)
(0.000797579 0.534621 0)
(0.000835814 0.526957 0)
(0.000872595 0.518838 0)
(0.00090763 0.510254 0)
(0.000940591 0.501198 0)
(0.000971118 0.491661 0)
(0.000998828 0.481634 0)
(0.00102333 0.471108 0)
(0.00104426 0.460075 0)
(0.00106128 0.448526 0)
(0.0010741 0.436454 0)
(0.00108255 0.42385 0)
(0.00108655 0.410707 0)
(0.00108613 0.397018 0)
(0.00108147 0.382777 0)
(0.00107279 0.367979 0)
(0.00106035 0.352621 0)
(0.00104436 0.336705 0)
(0.00102486 0.320235 0)
(0.0010017 0.303222 0)
(0.000974431 0.285687 0)
(0.000942412 0.26766 0)
(0.000904858 0.249184 0)
(0.000861042 0.230316 3.07218e-52)
(0.000810534 0.211131 2.77357e-52)
(0.000753457 0.191719 3.86704e-51)
(0.000690688 0.172185 3.20822e-51)
(0.000623818 0.152655 1.98041e-50)
(0.000554751 0.133267 1.76249e-48)
(0.000484893 0.114183 0)
(0.000414314 0.095585 2.6568e-47)
(0.00034186 0.0776841 -5.12648e-47)
(0.000265415 0.0607313 2.20068e-47)
(0.000181672 0.0450166 2.22011e-47)
(8.55336e-05 0.0308602 -7.78019e-46)
(-3.44582e-05 0.0186035 3.93796e-47)
(-0.000162888 0.00859887 0)
(-0.000258614 0.000822422 3.08244e-46)
(-0.000482807 -0.0044933 0)
(-0.00056234 -0.00707427 0)
(-0.000503317 -0.0065244 0)
(-0.0554115 0.228001 0)
(-0.0524324 0.319336 -2.24094e-44)
(-0.0461717 0.435572 -1.98188e-45)
(-0.0420236 0.562333 1.25726e-45)
(-0.0392553 0.68498 0)
(-0.0357268 0.798115 2.74071e-45)
(-0.0308734 0.902661 -5.51291e-45)
(-0.0254741 0.996971 0)
(-0.0195692 1.08033 5.50612e-45)
(-0.0130303 1.15284 5.52606e-45)
(-0.00574102 1.2151 0)
(0.00236314 1.26805 -1.22068e-46)
(0.0112787 1.31281 -1.1917e-46)
(0.0209454 1.3504 4.3842e-47)
(0.0312786 1.3818 3.57253e-47)
(0.0421555 1.40792 -7.17637e-46)
(0.053419 1.42956 2.02278e-48)
(0.0648757 1.44738 0)
(0.0763022 1.46188 8.93544e-47)
(0.087454 1.47338 -2.20065e-47)
(0.0980738 1.48203 -1.07706e-47)
(0.107894 1.48781 5.23271e-48)
(0.116639 1.49047 -3.12411e-48)
(0.124034 1.48957 -2.97417e-46)
(0.129809 1.48437 1.68324e-47)
(0.133722 1.47388 4.39676e-45)
(0.135567 1.45682 0)
(0.135186 1.43165 0)
(0.132488 1.3965 -1.63837e-45)
(0.127466 1.34921 1.59467e-45)
(0.12021 1.28751 3.17285e-45)
(0.110896 1.2092 2.75353e-45)
(0.0998102 1.11234 0)
(0.0875043 0.995705 3.59297e-45)
(0.074747 0.85993 2.97079e-45)
(0.0623456 0.70746 0)
(0.0498058 0.544014 -2.95273e-45)
(0.0284869 0.379076 -2.27561e-44)
(-0.000634029 -0.00670861 -1.64105e-45)
(-0.000779346 -0.0067159 -9.11261e-45)
(-0.00089534 -0.00671896 -6.3385e-45)
(-0.00095631 -0.00664402 1.5517e-45)
(-0.000936803 -0.00658494 1.21964e-44)
(-0.000922615 -0.00654897 -9.90356e-46)
(-0.000909979 -0.00651655 9.61916e-47)
(-0.000906216 -0.00648409 1.4832e-44)
(-0.000910419 -0.00644454 1.52678e-44)
(-0.000917875 -0.00639171 1.55501e-44)
(-0.000923597 -0.00632437 1.51057e-44)
(-0.000923768 -0.00624559 -1.08833e-48)
(-0.000916527 -0.00616235 -3.4856e-46)
(-0.0009033 -0.0060823 1.5401e-44)
(-0.000886999 -0.00601083 0)
(-0.000870832 -0.00594996 -1.61527e-44)
(-0.000857081 -0.00589861 -1.59851e-44)
(-0.000846726 -0.00585385 1.58822e-44)
(-0.000839605 -0.00581212 1.62293e-44)
(-0.000834832 -0.0057703 0)
(-0.000831229 -0.00572628 1.83312e-46)
(-0.000827694 -0.00567911 3.51633e-46)
(-0.0008234 -0.00562894 -1.68162e-46)
(-0.000817888 -0.00557676 1.67392e-44)
(-0.000811056 -0.00552396 1.67858e-44)
(-0.000803096 -0.00547207 1.39175e-46)
(-0.000794385 -0.00542241 1.28404e-46)
(-0.000785381 -0.00537597 1.18427e-46)
(-0.00077653 -0.00533327 0)
(-0.000768195 -0.00529438 -1.04595e-46)
(-0.000760632 -0.00525895 0)
(-0.000753971 -0.00522635 -2.08064e-46)
(-0.000748227 -0.0051957 -1.09632e-46)
(-0.000743327 -0.00516605 1.69579e-44)
(-0.000739132 -0.00513641 -4.51003e-52)
(-0.000735474 -0.00510585 -1.72856e-44)
(-0.000732176 -0.00507356 -1.74253e-44)
(-0.000729074 -0.00503887 -1.74143e-44)
(-0.000726014 -0.00500128 0)
(-0.000722863 -0.00496044 0)
(-0.000719495 -0.00491616 0)
(-0.000715794 -0.00486839 -1.79186e-44)
(-0.000711644 -0.00481715 -1.79616e-44)
(-0.000706936 -0.00476255 1.90608e-46)
(-0.000701575 -0.00470473 -1.79116e-44)
(-0.000695485 -0.00464384 -1.78365e-44)
(-0.000688637 -0.00458004 2.41527e-46)
(-0.000681045 -0.00451346 -1.76714e-44)
(-0.00067277 -0.00444426 -1.76174e-44)
(-0.000663917 -0.00437257 0)
(-0.000654607 -0.00429854 -1.76169e-44)
(-0.000644958 -0.0042223 3.28138e-46)
(-0.000635062 -0.004144 1.77385e-44)
(-0.000624968 -0.00406377 -1.78178e-44)
(-0.000614682 -0.00398169 -1.75617e-44)
(-0.000604176 -0.00389782 -1.7961e-44)
(-0.000593408 -0.00381219 -3.60342e-44)
(-0.000582341 -0.00372478 -1.77171e-44)
(-0.000570961 -0.0036356 -1.81101e-44)
(-0.000559285 -0.00354463 -1.81537e-44)
(-0.000547346 -0.00345189 0)
(-0.000535184 -0.00335742 -1.82311e-44)
(-0.000522822 -0.00326129 -1.78752e-44)
(-0.000510259 -0.00316352 0)
(-0.000497465 -0.00306416 -1.82498e-44)
(-0.000484393 -0.00296321 -1.78278e-44)
(-0.000471002 -0.00286066 0)
(-0.000457266 -0.00275647 0)
(-0.000443196 -0.00265063 0)
(-0.000428831 -0.00254313 -1.81635e-44)
(-0.000414223 -0.00243398 -3.63812e-44)
(-0.000399428 -0.00232322 -1.82327e-44)
(-0.000384466 -0.00221087 -1.82838e-44)
(-0.000369343 -0.00209695 -1.83393e-44)
(-0.000354027 -0.00198144 4.51143e-46)
(-0.000338487 -0.00186433 -1.84594e-44)
(-0.000322696 -0.00174555 -3.65849e-44)
(-0.000306649 -0.0016251 -1.86066e-44)
(-0.000290362 -0.00150294 -1.86939e-44)
(-0.00027386 -0.00137911 4.9751e-46)
(-0.00025716 -0.00125364 1.88806e-44)
(-0.000240263 -0.00112655 -1.8971e-44)
(-0.000223149 -0.000997863 -1.85478e-44)
(-0.00020578 -0.00086756 0)
(-0.00018812 -0.0007356 0)
(-0.000170152 -0.000601928 0)
(-0.000151887 -0.000466495 -1.94518e-44)
(-0.000133363 -0.000329257 -1.95934e-44)
(-0.000114635 -0.000190189 0)
(-9.57553e-05 -4.92784e-05 -1.9922e-44)
(-7.67576e-05 9.34798e-05 -1.95288e-44)
(-5.76522e-05 0.000238076 0)
(-3.8417e-05 0.000384495 0)
(-1.89927e-05 0.00053272 0)
(6.97973e-07 0.000682746 0)
(2.0741e-05 0.0008346 0)
(4.12094e-05 0.000988342 0)
(6.21277e-05 0.00114407 0)
(8.346e-05 0.00130189 -2.00239e-44)
(0.000105113 0.00146186 -2.07509e-44)
(0.000126958 0.00162401 0)
(0.000148888 0.00178829 -2.09661e-44)
(0.000170861 0.00195463 -2.10516e-44)
(0.000192924 0.00212296 0)
(0.000215204 0.0022933 2.17442e-44)
(0.000237858 0.00246571 2.10716e-44)
(0.000261004 0.00264031 -2.10285e-44)
(0.000284677 0.00281722 7.05701e-46)
(0.000308819 0.00299651 2.0978e-44)
(0.000333321 0.00317817 -2.09863e-44)
(0.000358073 0.00336216 -2.02765e-44)
(0.000383019 0.00354843 0)
(0.00040817 0.00373695 0)
(0.000433594 0.00392774 0)
(0.000459364 0.00412089 -2.10803e-44)
(0.000485523 0.0043165 -2.10938e-44)