/*--------------------------------*- C++ -*----------------------------------*\
| =========                 |                                                 |
| \\      /  F ield         | OpenFOAM: The Open Source CFD Toolbox           |
|  \\    /   O peration     | Version:  2.2.1                                 |
|   \\  /    A nd           | Web:      www.OpenFOAM.org                      |
|    \\/     M anipulation  |                                                 |
\*---------------------------------------------------------------------------*/
FoamFile
{
    version     2.0;
    format      ascii;
    class       volScalarField;
    location    "3e-05";
    object      alpha1;
}
// * * * * * * * * * * * * * * * * * * * * * * * * * * * * * * * * * * * * * //

dimensions      [0 0 0 0 0 0 0];

internalField   nonuniform List<scalar> 
22464
(
0.996648
0.999943
0.999949
0.99979
0.999783
0.9998
0.999828
0.999679
0.99967
0.99967
0.99967
0.999702
0.999873
0.999818
0.999707
0.999707
0.999707
0.999707
0.999792
0.999818
0.99973
0.99973
0.99973
0.99973
0.999886
0.999951
0.999891
0.990178
0.797241
0.223177
0.0329155
0.00613853
0.00255185
0.00222322
0.00156496
0.00132031
0.00117734
0.00105418
0.00102092
0.000981353
0.000974404
0.000948243
0.000942664
0.000931028
0.00092233
0.000922727
0.000916486
0.000932885
0.000917661
0.000960191
0.000924377
0.00100897
0.000925122
0.00106259
0.000922464
0.00112367
0.000943489
0.00122869
0.00102959
0.00142632
0.00121968
0.00180625
0.00155379
0.00241721
0.00199864
0.00296841
0.00226202
0.00300781
0.00217953
0.00264958
0.001799
0.00208423
0.00134888
0.00157701
0.00104951
0.00133458
0.000887243
0.0012373
0.000881186
0.00122215
0.0010275
0.00131259
0.0012609
0.00156385
0.00152721
0.00191174
0.00180001
0.00282644
0.00328248
0.00409709
0.00259524
0.0029769
0.00109083
0.00121581
0.000477867
0.000529307
0.000285542
0.000297056
0.000202312
0.000195605
0.000131591
0.000113453
7.60057e-05
5.28651e-05
3.17462e-05
1.60007e-05
6.34457e-06
1.75896e-06
2.88876e-07
2.14462e-08
4.20434e-10
1.24224e-12
3.16016e-16
1.15958e-20
3.72755e-25
1.07311e-29
2.81216e-34
6.79145e-39
1.52815e-43
3.24345e-48
6.60892e-53
1.32881e-57
2.74247e-62
6.06088e-67
1.46498e-71
3.81004e-76
1.02448e-80
2.74184e-85
7.12399e-90
1.74828e-94
3.84707e-99
7.47676e-104
1.30668e-108
2.10289e-113
3.17032e-118
4.52298e-123
6.14431e-128
7.98439e-133
9.96167e-138
1.19658e-142
1.38648e-147
1.55224e-152
1.6824e-157
1.77013e-162
1.81446e-167
1.81948e-172
1.67349e-177
-5.63195e-178
-1.40426e-178
-2.05671e-179
-2.3559e-180
-2.29418e-181
-1.96677e-182
-1.51085e-183
-1.05143e-184
-6.68364e-186
-3.90797e-187
-2.11485e-188
-1.06504e-189
-5.0145e-191
-2.21623e-192
-9.22838e-194
-3.63369e-195
-1.35812e-196
-4.83727e-198
-1.64818e-199
-5.39123e-201
-1.69838e-202
-5.16829e-204
-1.52393e-205
-4.36938e-207
-1.22314e-208
-3.35789e-210
-9.07933e-212
-2.42619e-213
-6.41925e-215
-1.68173e-216
-4.35648e-218
-1.11362e-219
-2.80418e-221
-6.94881e-223
-1.69384e-224
-4.06057e-226
-9.56822e-228
-2.21381e-229
-5.02086e-231
-1.11396e-232
-2.41384e-234
-5.10506e-236
-1.05427e-237
-2.12901e-239
-4.21233e-241
-8.18072e-243
-1.56144e-244
-2.92992e-246
-5.40168e-248
-9.77441e-250
-1.73431e-251
-3.01632e-253
-5.14479e-255
-8.61739e-257
-1.42005e-258
-2.3065e-260
-3.69759e-262
-5.85376e-264
-9.14885e-266
-1.41038e-267
-2.14246e-269
-3.20485e-271
-4.72051e-273
-6.85027e-275
-9.80444e-277
-1.38564e-278
-1.93554e-280
-2.67346e-282
-3.65099e-284
-4.92686e-286
-6.56459e-288
-8.62988e-290
-1.11881e-291
-1.43031e-293
-1.80361e-295
-2.24448e-297
-2.75807e-299
-3.34831e-301
-4.01709e-303
-4.7633e-305
-5.58198e-307
-6.46852e-309
-7.21146e-311
0
0
0
0
0
0
0
0
0
0
0
0
0
0
0
0
0
0
0
0
0
0
0
0
0
0
0
0
0
0
0
0
0
0
0
0
0
0
0
0
0
0
0
0
0
0
0
0
0
0
0
0
0
0
0
0
0
0
0
0
0
0
0
0
0
0
0
0
0
0
0
0
0
0
0
0
0
0
0
0
0
0
0
0
0
0
0
0
0
0
0
0
0
0
0
0
0
0
0
0
0
0
0
0
0
0
0
0
-6.14613e-311
-5.65171e-309
-5.0588e-307
-4.46989e-305
-3.89675e-303
-3.35272e-301
-2.84834e-299
-2.39074e-297
-1.9836e-295
-1.62755e-293
-1.32088e-291
-1.06027e-289
-8.41505e-288
-6.60026e-286
-5.11276e-284
-3.90903e-282
-2.94847e-280
-2.19348e-278
-1.60947e-276
-1.16508e-274
-8.3241e-273
-5.87256e-271
-4.09255e-269
-2.81785e-267
-1.91675e-265
-1.28761e-263
-8.53732e-262
-5.58311e-260
-3.59868e-258
-2.28485e-256
-1.42828e-254
-8.7877e-253
-5.32037e-251
-3.16903e-249
-1.85658e-247
-1.06939e-245
-6.05295e-244
-3.36461e-242
-1.83552e-240
-9.82195e-239
-5.15308e-237
-2.65013e-235
-1.33589e-233
-6.60072e-232
-3.19701e-230
-1.51782e-228
-7.06293e-227
-3.22115e-225
-1.43994e-223
-6.31254e-222
-2.71681e-220
-1.1499e-218
-4.79698e-217
-1.97706e-215
-8.0678e-214
-3.26443e-212
-1.31031e-210
-5.2139e-209
-2.05318e-207
-7.98125e-206
-3.05333e-204
-1.14576e-202
-4.20275e-201
-1.50169e-199
-5.20836e-198
-1.7472e-196
-5.6487e-195
-1.75384e-193
-5.2121e-192
-1.47801e-190
-3.98805e-189
-1.0212e-187
-2.47492e-186
-5.65974e-185
-1.21693e-183
-2.44972e-182
-4.59402e-181
-7.9813e-180
-1.27673e-178
-1.86827e-177
-2.48252e-176
-2.9673e-175
-3.14513e-174
-2.87766e-173
-2.12599e-172
-1.00502e-171
1.37296e-172
1.50092e-167
1.46242e-162
1.38776e-157
1.2798e-152
1.14426e-147
9.89438e-143
8.25327e-138
6.62341e-133
5.0995e-128
3.75478e-123
2.63343e-118
1.74862e-113
1.08763e-108
6.22442e-104
3.19959e-99
1.4519e-94
5.91402e-90
2.28101e-85
8.56944e-81
3.21685e-76
1.25338e-71
5.26907e-67
2.42189e-62
1.18783e-57
5.95273e-53
2.93294e-48
1.38424e-43
6.15616e-39
2.55053e-34
9.74306e-30
3.39116e-25
1.05827e-20
2.89647e-16
1.16642e-12
4.02415e-10
2.08361e-08
2.83419e-07
1.73576e-06
6.28482e-06
1.5891e-05
3.1582e-05
5.26578e-05
7.58612e-05
0.0001131
0.000131324
0.000195193
0.000202189
0.000296469
0.000285322
0.000526009
0.000475496
0.0012029
0.00108179
0.00294559
0.00258858
0.00409307
0.00329032
0.00283928
0.00180601
0.00191845
0.00153111
0.00156933
0.00126222
0.00131499
0.00102464
0.00122173
0.000875178
0.0012367
0.000879288
0.00133352
0.00103912
0.00157482
0.00133411
0.00208032
0.00177868
0.0026526
0.00215804
0.00301296
0.00222831
0.00296256
0.00194953
0.00238798
0.00150005
0.0017712
0.00117335
0.00139736
0.000993975
0.00120787
0.000920635
0.00111721
0.000912374
0.00107504
0.000917193
0.00103468
0.000925951
0.000984149
0.000916322
0.000939875
0.000902231
0.000912271
0.000903792
0.000913041
0.000923425
0.00094839
0.000956451
0.00102258
0.00100907
0.00110129
0.00114698
0.00128834
0.00155172
0.00220551
0.00240735
0.00936786
0.0433007
0.334659
0.875813
0.996336
0.999945
0.99994
0.999805
0.999729
0.999729
0.999729
0.999732
0.999838
0.999731
0.999704
0.999704
0.999703
0.999703
0.999705
0.999868
0.999814
0.999637
0.999637
0.999637
0.999637
0.999669
0.999738
0.999773
0.999891
0.999976
0.999953
0.994406
0
0
0
0
0
0
0
0
0
0
0
0
0
0
0
0
0
0
0
0
0
0
0
0
0
0
0
0
0
0
0
0
0
0
0
0
0
0
0
0
0
0
0
0
0
0
0
0
0
0
0
0
0
0
0
0
0
0
0
0
0
0
0
0
0
0
0
0
0
0
0
0
0
0
0
0
0
0
0
0
0
0
0
0
0
0
0
0
0
0
0
0
0
0
0
0
0
0
0
0
0
0
0
0
0
0
0
0
0
0
0
0
0
0
0
0
0
0
0.999461
0.99996
0.999998
1
0.999999
0.999962
0.999721
0.999371
0.999543
0.999953
0.999991
0.99995
0.999684
0.999079
0.998546
0.99859
0.998954
0.998528
0.997944
0.997824
0.99866
0.999267
0.999508
0.999532
0.999144
0.998722
0.998477
0.998297
0.998089
0.997927
0.997791
0.997707
0.997439
0.997083
0.996601
0.995524
0.993896
0.991956
0
0
0
0
0
0
0
0
0
0
0
0
0
0
0
0
0
0
0
0
0
0
0
0
0
0
0
0
0
0
0
0
0
0
0
0
0
0
0
0
0
0
0
0
0
0
0
0
0
-8.85043e-311
-7.90392e-309
-6.95381e-307
-6.04071e-305
-5.18128e-303
-4.3883e-301
-3.67027e-299
-3.03166e-297
-2.47328e-295
-1.99295e-293
-1.58619e-291
-1.24693e-289
-9.68121e-288
-7.42304e-286
-5.62028e-284
-4.20169e-282
-3.10137e-280
-2.26016e-278
-1.62626e-276
-1.15538e-274
-8.10522e-273
-5.61467e-271
-3.84064e-269
-2.59408e-267
-1.72988e-265
-1.13877e-263
-7.39868e-262
-4.74301e-260
-2.99923e-258
-1.87017e-256
-1.14953e-254
-6.96273e-253
-4.15427e-251
-2.44062e-249
-1.4113e-247
-8.02906e-246
-4.49204e-244
-2.47032e-242
-1.33471e-240
-7.08174e-239
-3.68821e-237
-1.88463e-235
-9.44481e-234
-4.64041e-232
-2.23443e-230
-1.05412e-228
-4.87103e-227
-2.20431e-225
-9.76814e-224
-4.23899e-222
-1.80192e-220
-7.50667e-219
-3.06717e-217
-1.23048e-215
-4.85336e-214
-1.88504e-212
-7.22134e-211
-2.73277e-209
-1.02281e-207
-3.78841e-206
-1.38834e-204
-5.02818e-203
-1.79601e-201
-6.30893e-200
-2.17214e-198
-7.30316e-197
-2.38885e-195
-7.57374e-194
-2.31911e-192
-6.83486e-191
-1.9324e-189
-5.22409e-188
-1.34601e-186
-3.29415e-185
-7.63032e-184
-1.66631e-182
-3.41592e-181
-6.54126e-180
-1.16343e-178
-1.90898e-177
-2.86592e-176
-3.8962e-175
-4.73271e-174
-5.04382e-173
-4.59309e-172
-3.4231e-171
-1.91468e-170
-6.26503e-170
1.81052e-171
1.41885e-166
9.92317e-162
6.73635e-157
4.43796e-152
2.83169e-147
1.74651e-142
1.03932e-137
5.95648e-133
3.28184e-128
1.7352e-123
8.78766e-119
4.25453e-114
1.96517e-109
8.64143e-105
3.60913e-100
1.42812e-95
5.33937e-91
1.88058e-86
6.22002e-82
1.92531e-77
5.55589e-73
1.48816e-68
3.68114e-64
8.35438e-60
1.72473e-55
3.19887e-51
5.23157e-47
7.33104e-43
8.46728e-39
6.83629e-35
1.17941e-31
9.48831e-29
4.3447e-25
3.53694e-21
3.01541e-18
3.97452e-16
1.32526e-14
1.76924e-13
1.30079e-12
6.23405e-12
2.18591e-11
6.01561e-11
1.26863e-10
2.19079e-10
4.31668e-09
2.70808e-07
2.70598e-06
8.691e-06
3.93353e-05
4.31274e-05
0.000128546
0.000106821
0.000345991
0.000238604
0.000821265
0.000659476
0.0013893
0.000688953
0.00110375
0.000892462
0.000902842
0.000605739
0.000535546
0.000288617
0.000258576
9.07896e-05
0.000101212
2.96564e-05
6.72889e-05
3.07407e-05
0.000127893
7.14849e-05
0.000286352
0.000172006
0.00054073
0.000352513
0.000894768
0.000531706
0.00114233
0.000566166
0.00105192
0.000462167
0.000745937
0.000303461
0.000461881
0.00017538
0.000267376
9.4578e-05
0.000154522
5.52617e-05
0.000102851
3.76232e-05
7.94139e-05
3.4052e-05
4.7379e-05
1.86719e-05
2.52609e-05
1.57422e-05
1.71338e-05
1.83658e-05
1.91086e-05
1.87786e-05
1.90711e-05
1.84365e-05
1.78771e-05
1.62722e-05
1.68914e-05
1.68761e-05
4.88449e-05
6.16848e-05
7.07788e-05
0.000130773
0.000270516
0.000148164
0.000517124
0.00126109
0.00984628
0.282371
0.853115
0.994261
0.999922
0.999961
0.999929
0.999921
0.999933
0.999948
0.999963
0.999965
0.999965
0.999965
0.999966
0.999965
0.999966
0.999971
0.999973
0.999966
0.999961
0.999955
0.999954
0.999964
0.999977
0.999989
0.999997
0.999998
0.999994
0.999998
0.999997
0.99999
0.999986
0.999982
0.999979
0.999978
0.999978
0.99998
0.999981
0.999982
0.99998
0.999976
0.999973
0.999973
0.999972
0.999972
0.99997
0.999961
0.999948
0.999935
0.999925
0.99994
0.999947
0.999832
0.984353
0.749523
0.145935
0.00366277
0.00113473
0.000262993
0.000150993
0.000231465
0.000112984
7.12343e-05
5.9048e-05
5.106e-05
3.20551e-05
1.72457e-05
1.51249e-05
1.38818e-05
1.44223e-05
1.63162e-05
1.82467e-05
1.9534e-05
1.99328e-05
2.2718e-05
1.88595e-05
2.02853e-05
1.57164e-05
2.50921e-05
1.79274e-05
4.42502e-05
2.79826e-05
7.65945e-05
4.65008e-05
0.000139754
8.86233e-05
0.000261405
0.000173724
0.000461586
0.000306165
0.000746674
0.000466281
0.00104475
0.000567952
0.00112557
0.000529724
0.000877914
0.000345284
0.000524858
0.000164208
0.000273892
6.62962e-05
0.000118495
2.74771e-05
6.01367e-05
2.68369e-05
9.56254e-05
8.89081e-05
0.000254768
0.000286888
0.000531966
0.000602898
0.00089912
0.000890903
0.00110122
0.00069148
0.00139968
0.000665538
0.000833858
0.000240314
0.00035066
0.000107365
0.00012976
4.34544e-05
3.98838e-05
8.9397e-06
2.88836e-06
2.94647e-07
4.68273e-09
2.16968e-10
1.26369e-10
6.04411e-11
2.2209e-11
6.40977e-12
1.35354e-12
1.86357e-13
1.41404e-14
4.29934e-16
3.30845e-18
3.93618e-21
4.89344e-25
1.07245e-28
1.37619e-31
8.26508e-35
1.03589e-38
8.88915e-43
6.32494e-47
3.8597e-51
2.07683e-55
1.00402e-59
4.41641e-64
1.78303e-68
6.65066e-73
2.30352e-77
7.44091e-82
2.2501e-86
6.39127e-91
1.71057e-95
4.32644e-100
1.03687e-104
2.36048e-109
5.11621e-114
1.05803e-118
2.09182e-123
3.96155e-128
7.19985e-133
1.25801e-137
2.11702e-142
3.43744e-147
5.39544e-152
8.2025e-157
1.21026e-161
1.73686e-166
2.42992e-171
3.19875e-176
-3.23658e-176
-1.18622e-176
-2.34447e-177
-3.35127e-178
-3.8448e-179
-3.72844e-180
-3.15116e-181
-2.36888e-182
-1.60737e-183
-9.95501e-185
-5.67759e-186
-3.00354e-187
-1.48287e-188
-6.8685e-190
-2.99878e-191
-1.23937e-192
-4.86813e-194
-1.82429e-195
-6.5469e-197
-2.25862e-198
-7.51958e-200
-2.42548e-201
-7.6098e-203
-2.33128e-204
-6.99891e-206
-2.0656e-207
-6.00773e-209
-1.72471e-210
-4.89027e-212
-1.36909e-213
-3.78078e-215
-1.02839e-216
-2.75098e-218
-7.22693e-220
-1.86228e-221
-4.70299e-223
-1.16321e-224
-2.81637e-226
-6.67313e-228
-1.54694e-229
-3.50804e-231
-7.78238e-233
-1.68924e-234
-3.58878e-236
-7.46599e-238
-1.52182e-239
-3.04113e-241
-5.96149e-243
-1.14694e-244
-2.16659e-246
-4.01984e-248
-7.32782e-250
-1.31286e-251
-2.31268e-253
-4.00743e-255
-6.83443e-257
-1.1478e-258
-1.89926e-260
-3.09775e-262
-4.98193e-264
-7.90191e-266
-1.23625e-267
-1.90792e-269
-2.9049e-271
-4.36391e-273
-6.46942e-275
-9.46648e-277
-1.36751e-278
-1.95056e-280
-2.74728e-282
-3.82087e-284
-5.24693e-286
-7.11354e-288
-9.52041e-290
-1.25771e-291
-1.63999e-293
-2.11078e-295
-2.68169e-297
-3.3633e-299
-4.16437e-301
-5.0908e-303
-6.14464e-305
-7.32308e-307
-8.61524e-309
-1.01616e-310
0
0
0
0
0
0
0
0
0
0
0
0
0
0
0
0
0
0
0
0
0
0
0
0
0
0
0
0
0
0
0
0
0
0
0
0
0
0
0
0
0
0
0
0
0
0
0
0
0
0
0
0
0
0
0
0
0
0
0
0
0
0
0
0
0
0
0
0
0
0
0
0
0
0
0
0
0
0
0
0
0
0
0
0
0
0
0
0
0
0
0
0
0
0
0
0
0
0
0
0
0
0
0
0
0
0
0
0
0
0
0
0
0
0
0
0
0
0
0
0
0
0
0
0
0
0
0
0
0
0
0
0
0
0
0
0
0
0
0
0
0
0
0
0
0
0
0
0
0
0
0
0
0
0
0
0
0
0
0
0
0
0
0
0
0
0
0
1
1
1
1
1
1
1
1
1
1
1
1
1
1
1
1
1
1
1
1
1
1
1
1
1
1
1
1
1
1
1
1
1
1
1
1
0
0
0
0
0
0
0
0
0
0
0
0
0
0
0
0
0
0
0
0
0
0
0
0
0
0
0
0
0
0
0
0
0
0
0
0
0
0
0
0
0
0
0
0
0
0
0
0
0
0
0
0
0
0
0
0
0
0
0
0
0
0
0
0
0
0
0
0
0
0
0
0
0
0
0
0
0
0
0
0
0
0
0
0
0
0
0
0
0
0
0
0
0
0
0
0
0
0
0
0
0
0
0
0
0
0
0
0
0
0
0
0
0
0
0
0
1
1
1
1
1
1
1
1
1
1
1
1
1
1
1
0.999999
0.999999
0.999997
0.999995
0.999993
0.999994
0.999993
0.999759
0.980716
0.726407
0.135357
0.00451277
0.000106839
7.26969e-06
8.80651e-07
7.92213e-08
8.41893e-09
9.21127e-10
1.71149e-10
1.15437e-10
7.20928e-11
3.25927e-11
1.17894e-11
7.8825e-12
6.25354e-12
6.06093e-12
1.03274e-11
4.06047e-11
1.00297e-10
1.24044e-10
8.44166e-11
8.44981e-11
9.1171e-11
9.08681e-11
8.09602e-11
9.2615e-11
9.5701e-10
1.55019e-10
1.96773e-11
1.47162e-11
3.74548e-10
1.96075e-08
6.8786e-07
1.67712e-06
8.48122e-06
9.82131e-06
2.83907e-05
2.32757e-05
5.08313e-05
3.43902e-05
5.57716e-05
2.60803e-05
3.42108e-05
9.35485e-06
8.79622e-06
1.29019e-06
1.5267e-07
1.78332e-09
1.4251e-12
4.16856e-13
2.7828e-12
1.11373e-09
9.06131e-08
1.57734e-06
9.94604e-06
2.79768e-05
6.12883e-05
9.59793e-05
0.00014131
0.000136371
0.000193978
0.000146034
0.000136056
7.35567e-05
6.25998e-05
1.82684e-05
2.01609e-05
4.27406e-06
1.99157e-06
2.03859e-07
2.99997e-09
6.6907e-12
1.31148e-14
3.32652e-18
3.15227e-17
1.56654e-17
3.66585e-18
9.19941e-19
2.40465e-19
4.57422e-20
9.31694e-21
1.61131e-21
2.00046e-22
1.79579e-23
1.35451e-24
7.26699e-26
2.02055e-27
2.03892e-29
5.08654e-32
2.1365e-35
1.64052e-39
1.1565e-43
7.54946e-48
4.60353e-52
2.64191e-56
1.43354e-60
7.37218e-65
3.594e-69
1.66023e-73
7.26334e-78
3.00892e-82
1.18067e-86
4.39166e-91
1.55015e-95
5.19929e-100
1.65948e-104
5.04812e-109
1.46587e-113
4.06943e-118
1.08164e-122
2.75646e-127
6.74384e-132
1.58594e-136
3.58921e-141
7.82568e-146
1.64555e-150
3.34041e-155
6.55233e-160
1.24305e-164
2.28266e-169
4.05846e-174
5.72521e-179
-9.17115e-178
-3.88776e-178
-9.40844e-179
-1.69146e-179
-2.48091e-180
-3.10785e-181
-3.41724e-182
-3.35949e-183
-2.99287e-184
-2.44109e-185
-1.83779e-186
-1.28558e-187
-8.40201e-189
-5.15434e-190
-2.97993e-191
-1.62926e-192
-8.44987e-194
-4.16829e-195
-1.96047e-196
-8.81053e-198
-3.79082e-199
-1.56435e-200
-6.20169e-202
-2.36547e-203
-8.69274e-205
-3.08168e-206
-1.05519e-207
-3.49367e-209
-1.11969e-210
-3.47712e-212
-1.04726e-213
-3.06188e-215
-8.6975e-217
-2.4023e-218
-6.45696e-220
-1.69017e-221
-4.31185e-223
-1.07287e-224
-2.60554e-226
-6.18037e-228
-1.4328e-229
-3.24847e-231
-7.20709e-233
-1.56561e-234
-3.332e-236
-6.95148e-238
-1.42249e-239
-2.85669e-241
-5.63318e-243
-1.0913e-244
-2.07803e-246
-3.89113e-248
-7.1681e-250
-1.29961e-251
-2.31991e-253
-4.07876e-255
-7.06512e-257
-1.20606e-258
-2.02946e-260
-3.36697e-262
-5.50823e-264
-8.88691e-266
-1.41414e-267
-2.21957e-269
-3.43634e-271
-5.248e-273
-7.90626e-275
-1.175e-276
-1.72267e-278
-2.49153e-280
-3.55494e-282
-5.00375e-284
-6.94788e-286
-9.51692e-288
-1.28596e-289
-1.71412e-291
-2.25398e-293
-2.92394e-295
-3.74209e-297
-4.7252e-299
-5.88739e-301
-7.2387e-303
-8.78356e-305
-1.05192e-306
-1.2434e-308
-1.44229e-310
-8.19484e-313
0
0
0
0
0
0
0
0
0
0
0
0
0
0
0
0
0
0
0
0
0
0
0
0
0
0
0
0
0
0
0
0
0
0
0
0
0
0
0
0
0
0
0
0
0
0
0
0
0
0
0
0
0
0
0
0
0
0
0
0
0
0
0
0
0
0
0
0
0
0
0
0
0
0
0
0
0
0
0
0
0
0
0
0
0
0
0
0
0
0
-8.19484e-313
-1.30298e-310
-1.14679e-308
-1.00477e-306
-8.69096e-305
-7.42097e-303
-6.25526e-301
-5.20495e-299
-4.27526e-297
-3.46629e-295
-2.77395e-293
-2.19098e-291
-1.70789e-289
-1.31384e-287
-9.9738e-286
-7.47137e-284
-5.52261e-282
-4.02791e-280
-2.89867e-278
-2.05825e-276
-1.44204e-274
-9.96889e-273
-6.80004e-271
-4.577e-269
-3.03992e-267
-1.99231e-265
-1.28843e-263
-8.22149e-262
-5.17604e-260
-3.21483e-258
-1.96957e-256
-1.19006e-254
-7.09027e-253
-4.16444e-251
-2.41066e-249
-1.3749e-247
-7.72355e-246
-4.27185e-244
-2.32538e-242
-1.24527e-240
-6.55736e-239
-3.39371e-237
-1.72537e-235
-8.61235e-234
-4.21848e-232
-2.02648e-230
-9.54198e-229
-4.40144e-227
-1.98775e-225
-8.78387e-224
-3.7958e-222
-1.60302e-220
-6.61151e-219
-2.66127e-217
-1.04471e-215
-3.99676e-214
-1.48906e-212
-5.39864e-211
-1.90321e-209
-6.51891e-208
-2.16762e-206
-6.99092e-205
-2.18487e-203
-6.61043e-202
-1.93418e-200
-5.46693e-199
-1.49094e-197
-3.91826e-196
-9.90957e-195
-2.40827e-193
-5.61501e-192
-1.25381e-190
-2.67622e-189
-5.44876e-188
-1.0557e-186
-1.94137e-185
-3.37844e-184
-5.54499e-183
-8.55039e-182
-1.23318e-180
-1.65478e-179
-2.05302e-178
-2.33701e-177
-2.41759e-176
-2.24491e-175
-1.8403e-174
-1.30077e-173
-7.64344e-173
-3.49147e-172
-1.02039e-171
-1.24056e-187
1.80584e-169
1.00702e-164
5.31735e-160
2.71557e-155
1.34014e-150
6.38486e-146
2.93385e-141
1.29883e-136
5.53362e-132
2.26622e-127
8.91031e-123
3.35904e-118
1.21247e-113
4.18434e-109
1.37855e-104
4.32875e-100
1.2935e-95
3.67266e-91
9.89482e-87
2.52677e-82
6.11082e-78
1.39916e-73
3.03364e-69
6.23257e-65
1.21411e-60
2.24272e-56
3.92038e-52
6.45685e-48
9.94574e-44
1.42016e-39
1.86338e-35
4.54931e-32
1.85497e-29
1.85603e-27
6.70479e-26
1.25345e-24
1.67125e-23
1.88161e-22
1.53648e-21
9.01352e-21
4.48729e-20
2.38159e-19
9.19475e-19
3.70395e-18
1.57766e-17
3.12779e-17
1.83244e-18
9.26002e-15
6.02116e-12
2.93997e-09
1.97758e-07
1.92751e-06
4.18534e-06
1.96347e-05
1.79239e-05
6.09892e-05
7.16668e-05
0.000133999
0.000144821
0.000193211
0.000135957
0.000142029
9.67821e-05
6.19821e-05
2.84446e-05
1.02536e-05
1.65872e-06
9.78658e-08
1.24377e-09
3.15134e-12
4.09392e-13
4.60842e-12
4.93789e-09
2.63956e-07
1.54088e-06
9.99547e-06
1.01506e-05
3.63003e-05
2.70036e-05
5.74625e-05
3.48304e-05
5.17375e-05
2.32757e-05
2.86243e-05
9.71537e-06
8.44698e-06
1.61561e-06
7.05557e-07
2.43619e-08
8.58557e-10
2.80994e-11
4.22309e-11
1.9025e-09
1.4402e-08
7.86762e-09
1.73323e-09
1.84226e-10
1.05849e-10
9.03791e-11
7.38591e-11
5.30056e-11
3.40333e-11
1.92797e-11
9.7193e-12
5.9759e-12
5.88176e-12
6.92261e-12
1.06906e-11
1.87757e-11
3.41333e-11
6.80411e-11
1.23043e-10
2.4899e-10
2.91712e-08
3.77145e-07
4.7283e-06
2.19907e-05
0.000302048
0.0125746
0.295561
0.858788
0.994218
0.999956
0.999992
0.999992
0.999992
0.999995
0.999997
0.999999
0.999999
0.999999
0.999999
0.999999
0.999999
0.999999
0.999999
1
0.999999
0.999999
0.999999
1
1
1
1
1
1
1
1
1
1
1
1
1
1
1
1
1
1
1
1
1
1
1
1
1
1
1
1
1
1
1
1
1
1
1
1
1
1
1
1
1
1
1
1
1
1
1
1
1
1
1
1
1
1
1
1
1
1
0.999999
0.999767
0.981573
0.736043
0.1418
0.00548597
9.95858e-05
1.39564e-06
3.02648e-08
1.06528e-09
2.56033e-10
1.67902e-10
1.22036e-10
1.05047e-10
6.95041e-11
3.59965e-11
1.78496e-11
8.86872e-12
4.29694e-12
2.01924e-12
9.23803e-13
4.14051e-13
1.8169e-13
7.78478e-14
3.24657e-14
1.32183e-14
5.30097e-15
2.11782e-15
8.55405e-16
3.57312e-16
1.59331e-16
8.18983e-17
5.22505e-17
4.43089e-17
4.30737e-17
7.86293e-17
3.11124e-14
6.55968e-12
1.772e-10
4.06541e-09
1.4407e-08
6.47998e-08
9.45199e-08
1.87955e-07
1.56545e-07
2.01444e-07
8.62978e-08
7.15669e-08
1.19e-08
3.23645e-09
1.16065e-10
2.64059e-13
2.69785e-14
2.87643e-14
3.07673e-14
2.65477e-13
5.38504e-11
2.83252e-09
3.8599e-08
2.1741e-07
6.93995e-07
1.47448e-06
2.55098e-06
4.53331e-06
6.04851e-06
8.0303e-06
5.06492e-06
2.40249e-06
7.7965e-07
2.73067e-07
1.78897e-08
5.56571e-10
1.18147e-11
6.8084e-14
7.05148e-17
3.98197e-18
1.30512e-18
5.90188e-19
2.47562e-19
8.81966e-20
2.77414e-20
8.06047e-21
2.15216e-21
5.11202e-22
1.04766e-22
1.79812e-23
2.49689e-24
2.6971e-25
2.16708e-26
1.22404e-27
4.47137e-29
9.15398e-31
8.20331e-33
2.29693e-35
1.33541e-38
1.28179e-42
1.05142e-46
8.05646e-51
5.71991e-55
3.78641e-59
2.35298e-63
1.37961e-67
7.65398e-72
4.02462e-76
2.00755e-80
9.5066e-85
4.27692e-89
1.8298e-93
7.4498e-98
2.872e-102
1.04736e-106
3.62713e-111
1.19625e-115
3.76559e-120
1.13357e-124
3.26948e-129
9.05068e-134
2.4086e-138
6.1711e-143
1.52422e-147
3.6336e-152
8.36937e-157
1.86436e-161
4.02004e-166
8.39743e-171
1.68963e-175
2.81999e-180
-3.02151e-178
-1.28209e-178
-3.28067e-179
-6.40894e-180
-1.03504e-180
-1.43807e-181
-1.76193e-182
-1.93658e-183
-1.9338e-184
-1.77156e-185
-1.50052e-186
-1.18257e-187
-8.7181e-189
-6.0392e-190
-3.94624e-191
-2.44061e-192
-1.43289e-193
-8.00707e-195
-4.26872e-196
-2.17572e-197
-1.06222e-198
-4.97601e-200
-2.2402e-201
-9.70641e-203
-4.05297e-204
-1.63292e-205
-6.35519e-207
-2.39181e-208
-8.71344e-210
-3.07556e-211
-1.05271e-212
-3.49705e-214
-1.12834e-215
-3.53865e-217
-1.07943e-218
-3.20479e-220
-9.26658e-222
-2.61111e-223
-7.17426e-225
-1.9232e-226
-5.03267e-228
-1.28618e-229
-3.21162e-231
-7.83856e-233
-1.87071e-234
-4.36711e-236
-9.97607e-238
-2.23077e-239
-4.88463e-241
-1.0477e-242
-2.20195e-244
-4.53614e-246
-9.16232e-248
-1.81506e-249
-3.52748e-251
-6.7273e-253
-1.25931e-254
-2.31445e-256
-4.17725e-258
-7.40565e-260
-1.28994e-261
-2.20804e-263
-3.71516e-265
-6.14572e-267
-9.99727e-269
-1.59951e-270
-2.51747e-272
-3.89847e-274
-5.94083e-276
-8.91042e-278
-1.31558e-279
-1.91241e-281
-2.73748e-283
-3.8592e-285
-5.359e-287
-7.33112e-289
-9.88143e-291
-1.31247e-292
-1.71808e-294
-2.21685e-296
-2.81987e-298
-3.53658e-300
-4.37383e-302
-5.33494e-304
-6.41869e-306
-7.61833e-308
-8.92418e-310
-9.83381e-312
0
0
0
0
0
0
0
0
0
0
0
0
0
0
0
0
0
0
0
0
0
0
0
0
0
0
0
0
0
0
0
0
0
0
0
0
0
0
0
0
0
0
0
0
0
0
0
0
0
0
0
0
0
0
0
0
0
0
0
0
0
0
0
0
0
0
0
0
0
0
0
0
0
0
0
0
0
0
0
0
0
0
0
0
0
0
0
0
0
0
0
0
0
0
0
0
0
0
0
0
0
0
0
0
0
0
0
0
0
0
0
0
0
0
0
0
0
0
0
0
0
0
0
0
0
0
0
0
0
0
0
0
0
0
0
0
0
0
0
0
0
0
0
0
0
0
0
0
0
0
0
0
0
0
0
0
0
0
0
0
0
0
0
0
0
0
0
0
0
0
0
0
0
0
0
0
0
0
0
0
0
0
0
0
0
0
0
0
0
0
0
0
0
0
0
0
0
0
0
0
-9.01433e-312
-7.9408e-310
-7.02724e-308
-6.13646e-306
-5.28798e-304
-4.49662e-302
-3.77294e-300
-3.12341e-298
-2.55082e-296
-2.0548e-294
-1.63243e-292
-1.27883e-290
-9.87745e-289
-7.52097e-287
-5.64469e-285
-4.17525e-283
-3.04326e-281
-2.18548e-279
-1.5461e-277
-1.07733e-275
-7.39279e-274
-4.99513e-272
-3.32272e-270
-2.17559e-268
-1.40192e-266
-8.88916e-265
-5.54511e-263
-3.40246e-261
-2.05317e-259
-1.21818e-257
-7.10499e-256
-4.07267e-254
-2.29382e-252
-1.26912e-250
-6.8961e-249
-3.67923e-247
-1.92687e-245
-9.9032e-244
-4.99358e-242
-2.46969e-240
-1.19769e-238
-5.69361e-237
-2.65242e-235
-1.21051e-233
-5.41032e-232
-2.36731e-230
-1.01371e-228
-4.24655e-227
-1.73966e-225
-6.96682e-224
-2.72626e-222
-1.042e-220
-3.88796e-219
-1.41544e-217
-5.02495e-216
-1.73855e-214
-5.85874e-213
-1.92181e-211
-6.13234e-210
-1.90217e-208
-5.73151e-207
-1.67629e-205
-4.75488e-204
-1.30697e-202
-3.47805e-201
-8.95203e-200
-2.22623e-198
-5.34313e-197
-1.23615e-195
-2.75313e-194
-5.89453e-193
-1.21135e-191
-2.38537e-190
-4.49265e-189
-8.07634e-188
-1.3826e-186
-2.2482e-185
-3.4624e-184
-5.03385e-183
-6.88301e-182
-8.81302e-181
-1.0513e-179
-1.1613e-178
-1.17918e-177
-1.09058e-176
-9.07987e-176
-6.69963e-175
-4.28547e-174
-2.29849e-173
-9.77092e-173
-2.91219e-172
-2.77704e-172
6.30149e-171
3.2186e-166
1.496e-161
6.73093e-157
2.92902e-152
1.23157e-147
4.99839e-143
1.95579e-138
7.36817e-134
2.66863e-129
9.27649e-125
3.08931e-120
9.83776e-116
2.98956e-111
8.6497e-107
2.37574e-102
6.17013e-98
1.51703e-93
3.54886e-89
7.89395e-85
1.6679e-80
3.34488e-76
6.36282e-72
1.14728e-67
1.95817e-63
3.15558e-59
4.77837e-55
6.75322e-51
8.84188e-47
1.07614e-42
1.13752e-38
2.00463e-35
7.30663e-33
8.28392e-31
4.08977e-29
1.12763e-27
2.0067e-26
2.50739e-25
2.32886e-24
1.68197e-23
9.82649e-23
4.80758e-22
2.02904e-21
7.6136e-21
2.6241e-20
8.36921e-20
2.36081e-19
5.63009e-19
1.24753e-18
3.79795e-18
6.05255e-17
5.73038e-14
1.0193e-11
5.03291e-10
1.67394e-08
2.53953e-07
7.32398e-07
2.32649e-06
5.00281e-06
7.96048e-06
6.00812e-06
4.53099e-06
2.55592e-06
1.48377e-06
7.02775e-07
2.22739e-07
4.05091e-08
3.10949e-09
6.30617e-11
3.2436e-13
2.97635e-14
2.78238e-14
2.62203e-14
4.47205e-13
1.74484e-10
4.28678e-09
1.41869e-08
8.05301e-08
9.10976e-08
2.07835e-07
1.56202e-07
1.87646e-07
9.09158e-08
6.27377e-08
1.29447e-08
3.62867e-09
1.34674e-10
5.27409e-12
2.49034e-14
7.19914e-17
3.98334e-17
4.10002e-17
4.75747e-17
7.40228e-17
1.41566e-16
2.96644e-16
6.85476e-16
1.66814e-15
4.14621e-15
1.0337e-14
2.53866e-14
6.08343e-14
1.41455e-13
3.19746e-13
7.06953e-13
1.53711e-12
3.27877e-12
6.83576e-12
1.40101e-11
2.84895e-11
6.12046e-11
9.00428e-11
9.4968e-11
3.78069e-10
7.09456e-09
3.16089e-08
1.47677e-07
4.80689e-06
0.000389597
0.0187691
0.33509
0.879605
0.995377
0.99997
1
1
1
1
1
1
1
1
1
1
1
1
1
1
1
1
1
1
1
1
1
1
1
1
1
1
1
1
1
1
1
1
1
1
1
1
1
1
1
1
1
1
1
1
1
1
1
1
1
1
1
1
0
1
1
1
1
1
1
1
1
1
1
1
1
1
1
1
1
1
1
0.999832
0.985656
0.774435
0.172436
0.00819793
0.00016982
2.66206e-06
4.03261e-08
6.41739e-10
1.77431e-10
1.81278e-10
2.94496e-10
3.65695e-10
3.44918e-10
2.19889e-10
1.18388e-10
6.03943e-11
2.98103e-11
1.42387e-11
6.59811e-12
2.97749e-12
1.31117e-12
5.63639e-13
2.35514e-13
9.51501e-14
3.69345e-14
1.37469e-14
4.91229e-15
1.69537e-15
5.74797e-16
1.95938e-16
7.08092e-17
3.24615e-17
2.3348e-17
2.27422e-17
2.96642e-17
4.63517e-17
8.67497e-17
8.67312e-16
5.55048e-14
8.72494e-13
6.47359e-12
1.64168e-11
2.98449e-11
2.92165e-11
2.89589e-11
9.6741e-12
4.00754e-12
2.89625e-13
2.90835e-14
9.12437e-15
1.02994e-14
1.17511e-14
1.29146e-14
1.44384e-14
3.513e-14
1.11548e-12
2.12028e-11
1.6903e-10
7.20481e-10
1.94431e-09
4.13173e-09
8.80087e-09
1.89461e-08
2.70785e-08
3.41524e-08
1.46216e-08
3.49714e-09
4.59777e-10
3.64902e-11
6.44048e-13
1.752e-15
8.90734e-19
1.89955e-19
7.2432e-20
2.50271e-20
7.34356e-21
2.03278e-21
5.48496e-22
1.42794e-22
3.49797e-23
7.93825e-24
1.63965e-24
3.02123e-25
4.8534e-26
6.61652e-27
7.41838e-28
6.59593e-29
4.44879e-30
2.14276e-31
6.7203e-33
1.17594e-34
8.90802e-37
2.0629e-39
9.89467e-43
9.22432e-47
7.83161e-51
6.12863e-55
4.47118e-59
3.06718e-63
1.98846e-67
1.22072e-71
7.09803e-76
3.90742e-80
2.03578e-84
1.00399e-88
4.69001e-93
2.0774e-97
8.73743e-102
3.49476e-106
1.33132e-110
4.83783e-115
1.67957e-119
5.57931e-124
1.77594e-128
5.42441e-133
1.592e-137
4.49528e-142
1.22266e-146
3.20691e-151
8.12015e-156
1.98692e-160
4.70283e-165
1.07769e-169
2.39313e-174
4.77968e-179
-8.69491e-179
-4.75312e-179
-1.44479e-179
-3.22055e-180
-5.80555e-181
-8.88951e-182
-1.19063e-182
-1.42251e-183
-1.53757e-184
-1.51973e-185
-1.38523e-186
-1.1724e-187
-9.26614e-189
-6.87178e-190
-4.80134e-191
-3.1719e-192
-1.98742e-193
-1.18432e-194
-6.72848e-196
-3.65252e-197
-1.89826e-198
-9.46213e-200
-4.53113e-201
-2.08767e-202
-9.26736e-204
-3.96871e-205
-1.64156e-206
-6.5654e-208
-2.54161e-209
-9.53278e-211
-3.46721e-212
-1.22392e-213
-4.19645e-215
-1.39859e-216
-4.53422e-218
-1.43099e-219
-4.39932e-221
-1.31829e-222
-3.85245e-224
-1.09844e-225
-3.05728e-227
-8.31013e-229
-2.20695e-230
-5.72902e-232
-1.45429e-233
-3.61148e-235
-8.77699e-237
-2.08832e-238
-4.86623e-240
-1.11093e-241
-2.48557e-243
-5.45194e-245
-1.17274e-246
-2.47463e-248
-5.12395e-250
-1.04138e-251
-2.07797e-253
-4.07204e-255
-7.83854e-257
-1.48257e-258
-2.75585e-260
-5.03566e-262
-9.04713e-264
-1.59849e-265
-2.77806e-267
-4.74995e-269
-7.99157e-271
-1.32327e-272
-2.15684e-274
-3.46108e-276
-5.46898e-278
-8.51084e-280
-1.3046e-281
-1.97009e-283
-2.93131e-285
-4.29795e-287
-6.21086e-289
-8.84713e-291
-1.24248e-292
-1.7206e-294
-2.34985e-296
-3.16524e-298
-4.2054e-300
-5.51142e-302
-7.12519e-304
-9.08722e-306
-1.14339e-307
-1.42099e-309
-1.63897e-311
0
0
0
0
0
0
0
0
0
0
0
0
0
0
0
0
0
0
0
0
0
0
0
0
0
0
0
0
0
0
0
0
0
0
0
0
0
0
0
0
0
0
0
0
0
0
0
0
0
0
0
0
0
0
0
0
0
0
0
0
0
0
0
0
0
0
0
0
0
0
0
0
0
0
0
0
0
0
0
0
0
0
0
0
0
-1.80287e-311
-1.59636e-309
-1.33138e-307
-1.09639e-305
-8.91024e-304
-7.14585e-302
-5.65508e-300
-4.4159e-298
-3.40231e-296
-2.58632e-294
-1.93967e-292
-1.43512e-290
-1.04746e-288
-7.54081e-287
-5.35389e-285
-3.74814e-283
-2.5869e-281
-1.75991e-279
-1.18001e-277
-7.79645e-276
-5.07532e-274
-3.25474e-272
-2.05582e-270
-1.27879e-268
-7.83223e-267
-4.72244e-265
-2.80264e-263
-1.63685e-261
-9.40604e-260
-5.31715e-258
-2.9562e-256
-1.61615e-254
-8.68602e-253
-4.58831e-251
-2.38161e-249
-1.21442e-247
-6.08175e-246
-2.99047e-244
-1.44338e-242
-6.83647e-241
-3.17664e-239
-1.44763e-237
-6.46797e-236
-2.83244e-234
-1.21532e-232
-5.10745e-231
-2.10159e-229
-8.46366e-228
-3.33476e-226
-1.28497e-224
-4.84019e-223
-1.78152e-221
-6.40456e-220
-2.24788e-218
-7.69925e-217
-2.57217e-215
-8.37692e-214
-2.65781e-212
-8.20957e-211
-2.46699e-209
-7.20707e-208
-2.04538e-206
-5.63479e-205
-1.50558e-203
-3.89826e-202
-9.77152e-201
-2.36884e-199
-5.54776e-198
-1.25372e-196
-2.73045e-195
-5.72306e-194
-1.15276e-192
-2.22778e-191
-4.1234e-190
-7.29541e-189
-1.23118e-187
-1.97713e-186
-3.01321e-185
-4.34508e-184
-5.9082e-183
-7.54566e-182
-9.01034e-181
-1.00056e-179
-1.02657e-178
-9.65476e-178
-8.2406e-177
-6.30068e-176
-4.23955e-175
-2.44627e-174
-1.15995e-173
-4.14511e-173
-8.69062e-173
1.67373e-174
8.41627e-170
3.6893e-165
1.56206e-160
6.39759e-156
2.53211e-151
9.67517e-147