/*--------------------------------*- C++ -*----------------------------------*\
| =========                 |                                                 |
| \\      /  F ield         | OpenFOAM: The Open Source CFD Toolbox           |
|  \\    /   O peration     | Version:  2.2.1                                 |
|   \\  /    A nd           | Web:      www.OpenFOAM.org                      |
|    \\/     M anipulation  |                                                 |
\*---------------------------------------------------------------------------*/
FoamFile
{
    version     2.0;
    format      ascii;
    class       volScalarField;
    location    "3e-05";
    object      p;
}
// * * * * * * * * * * * * * * * * * * * * * * * * * * * * * * * * * * * * * //

dimensions      [1 -1 -2 0 0 0 0];

internalField   nonuniform List<scalar> 
22464
(
-126730
-61839.6
-40997.5
-30387.9
-24047.4
-20165.1
-17540.4
-15586.9
-14166
-13066
-12181.3
-11475.8
-10930.4
-10399.7
-9898.98
-9505.4
-9149.06
-8818.84
-8548.31
-8254.35
-7908.16
-7574.42
-7190.05
-6705.36
-6053.64
-4942.3
-2839.61
1198.5
3026.19
-320.65
-250.441
131.357
130.364
150.253
137.96
129.908
133.014
132.313
134.908
136.015
138.317
137.754
137.973
137.256
136.271
135.792
134.962
135.356
133.538
135.548
132.038
136.889
129.324
137.876
124.61
135.694
119.083
133.526
115.794
134.578
117.627
148.307
129.081
190.282
153.614
247.428
171.813
246.962
165.587
208.056
139.715
163.002
115.511
131.564
104.062
124.078
97.9925
120.385
96.0191
114.653
98.3025
111.246
104.808
119.391
114.989
128.779
128.155
203.59
288.543
435.775
207.73
244.168
103.307
105.722
78.5849
79.6149
73.6318
75.5389
73.2199
74.6168
71.5052
71.2462
69.0567
67.5372
66.036
64.7671
63.8719
63.2385
62.7198
62.2218
61.7224
61.2213
60.721
60.222
59.7238
59.225
58.725
58.2248
57.7266
57.2323
56.7418
56.2536
55.7655
55.2765
54.7873
54.3001
53.8174
53.3408
52.8714
52.4095
51.9551
51.5079
51.0668
50.6298
50.1945
49.7589
49.3221
48.8847
48.4482
48.0144
47.584
47.157
46.7325
46.3095
45.8879
45.4679
45.0506
44.6366
44.2262
43.819
43.4141
43.0108
42.6086
42.2077
41.8085
41.4116
41.0175
40.6261
40.2373
39.8506
39.4656
39.0821
38.6999
38.3189
37.9391
37.5607
37.184
36.8096
36.438
36.0699
35.7055
35.3446
34.9865
34.6302
34.2745
33.9189
33.5632
33.2076
32.8528
32.4991
32.1467
31.7949
31.4429
31.0894
30.7336
30.3751
30.0143
29.6522
29.2903
28.9302
28.5729
28.2192
27.8689
27.5214
27.1756
26.8304
26.4845
26.137
25.7874
25.4353
25.0807
24.7239
24.3654
24.0058
23.646
23.287
22.93
22.5757
22.2249
21.8777
21.5341
21.1934
20.8547
20.5171
20.1798
19.8425
19.5052
19.1687
18.8341
18.5026
18.1756
17.8538
17.5374
17.2259
16.9182
16.6126
16.3074
16.0009
15.6918
15.3795
15.0638
14.7454
14.4254
14.105
13.7855
13.4681
13.1532
12.8413
12.5321
12.2252
11.92
11.6156
11.3117
11.0076
10.7034
10.3988
10.0939
9.78897
9.48395
9.17888
8.87371
8.5683
8.26253
7.95634
7.64979
7.34311
7.03671
6.73124
6.42746
6.12626
5.82856
5.53527
5.24716
4.96485
4.68876
4.419
4.15539
3.89739
3.64407
3.39421
3.14646
2.89952
2.65243
2.40482
2.15711
1.91033
1.66463
1.42126
1.18273
0.956651
0.750035
0.557425
0.393115
0.265091
0.0609419
0.0589606
0.253816
0.370796
0.528686
0.72471
0.953498
1.20344
1.46653
1.73881
2.01837
2.3032
2.59099
2.87962
3.16742
3.45348
3.73756
4.01985
4.30069
4.58031
4.85876
5.13589
5.41136
5.68479
5.95584
6.22423
6.48979
6.75251
7.01251
7.27006
7.52556
7.77945
8.03226
8.28455
8.53685
8.7897
9.04362
9.29908
9.55653
9.8164
10.0792
10.3453
10.6152
10.8896
11.169
11.4538
11.7447
12.042
12.3457
12.6558
12.9719
13.2933
13.6189
13.9477
14.2785
14.6102
14.9419
15.2729
15.6032
15.933
16.2627
16.5931
16.925
17.2589
17.5952
17.9338
18.2742
18.6157
18.9571
19.2973
19.6354
19.9708
20.3033
20.6333
20.9612
21.288
21.6146
21.9417
22.2699
22.5996
22.9307
23.2633
23.5974
23.9333
24.2712
24.6121
24.9567
25.3058
25.6601
26.0196
26.3842
26.753
27.1251
27.4995
27.8752
28.2518
28.6291
29.0076
29.3876
29.7699
30.1546
30.5419
30.9313
31.3222
31.7143
32.1073
32.5013
32.897
33.2952
33.6965
34.1012
34.5086
34.9175
35.3258
35.7312
36.1318
36.5263
36.9146
37.298
37.6782
38.0578
38.439
38.8237
39.2127
39.6063
40.004
40.405
40.8088
41.2147
41.6222
42.031
42.4409
42.8515
43.2627
43.6745
44.0868
44.4998
44.9136
45.3278
45.7418
46.1546
46.5653
46.9736
47.3802
47.7869
48.1962
48.6111
49.034
49.466
49.9066
50.3541
50.806
51.2599
51.7137
52.1664
52.6178
53.0679
53.517
53.9652
54.4125
54.8593
55.3061
55.7542
56.2047
56.6587
57.1171
57.5798
58.0464
58.5162
58.9883
59.4622
59.9378
60.4151
60.8947
61.3774
61.8639
62.3533
62.8465
63.3638
63.996
64.8887
66.154
67.6554
69.1864
71.3657
71.6363
74.7481
73.377
75.7211
73.819
79.7499
78.7205
105.458
103.156
241.096
207.598
435.637
290.287
205.509
128.9
129.49
115.574
120.106
105.228
111.735
98.4759
114.908
96.0515
120.639
97.9045
124.357
103.88
131.808
115.19
163.21
139.065
209.724
165.084
250.285
170.543
249.789
151.672
189.745
127.556
147.714
116.853
134.577
115.585
133.82
119.612
137.195
126.309
141.929
131.855
142.636
135.547
141.11
137.267
139.884
138.049
139.323
139.32
140.758
142.313
143.886
144.146
147.338
142.479
144.993
139.223
135.492
146.9
146.833
151.509
133.988
-369.154
-385.169
-129.933
-1776.8
-4117.17
-5192.29
-5645.49
-5776.34
-5806.14
-5757.17
-5661.96
-5572.01
-5379.14
-5193.58
-5008.63
-4806.3
-4583.76
-4351.08
-4154.58
-3873.46
-3504.92
-3201.45
-2871.48
-2508.58
-2132.85
-1752.86
-1348.69
-994.961
-646.968
-400.836
1572.99
0.0806351
0.0960557
0.0999743
0.0988623
0.0949453
0.0914214
0.0883123
0.0869606
0.0870909
0.0884687
0.0892748
0.0900253
0.0884532
0.0861266
0.0819285
0.0680354
0.0883227
0.122344
0.136558
0.141529
0.143802
0.144992
0.145522
0.145653
0.145532
0.145228
0.144785
0.144232
0.143591
0.14288
0.142114
0.141304
0.14046
0.139591
0.138704
0.137805
0.136902
0.136
0.135102
0.134215
0.133341
0.132484
0.131649
0.130839
0.130055
0.129302
0.128582
0.127896
0.127247
0.126637
0.126067
0.12554
0.125057
0.12462
0.12423
0.123891
0.123602
0.123366
0.123186
0.123062
0.122996
0.12299
0.123045
0.123163
0.123343
0.123587
0.123894
0.124263
0.124694
0.125186
0.125736
0.126341
0.127001
0.12771
0.128465
0.129262
0.130097
0.130965
0.131861
0.132781
0.133717
0.134665
0.135618
0.136569
0.137509
0.13843
0.139323
0.140176
0.140977
0.141715
0.142374
0.142941
0.143395
0.143712
0.143854
0.143757
0.143272
0.142222
0.140023
0.134836
0.119749
0.0858142
0.0687707
0.0778058
0.0848424
0.0861317
0.0887193
0.0888748
0.0896036
0.0892459
0.0897943
0.0915795
0.0945958
0.0970728
0.101855
0.102624
0.0975666
0.080624
40.8895
90.5793
63.5228
30.2371
-6.7018
-50.9395
-80.2734
-32.6447
-135.083
-235.36
-266.88
-307.217
-326.265
-277.171
-190.571
-240.278
-325.531
-286.453
-177.428
-146.949
-342.755
-441.27
-485.564
-524.611
-527.352
-517.318
-558.907
-629.934
-717.466
-852.022
-1056.75
-1389.35
-1908.2
-2858.13
-4797.11
-8348.9
-14787
-36708.3
0.297593
0.423697
0.578014
0.76269
0.989423
1.2393
1.5007
1.76996
2.04604
2.32715
2.61135
2.89689
3.18234
3.46684
3.75001
4.0318
4.3123
4.59155
4.86952
5.14604
5.42084
5.69361
5.96404
6.23191
6.4971
6.75958
7.01948
7.27702
7.53257
7.78653
8.03942
8.29176
8.54407
8.79689
9.05072
9.30603
9.56327
9.82288
10.0853
10.3511
10.6206
10.8946
11.1736
11.4582
11.7488
12.0459
12.3497
12.6599
12.9762
13.2979
13.6239
13.9531
14.2841
14.616
14.9476
15.2786
15.6086
15.9381
16.2675
16.5976
16.9293
17.2633
17.5998
17.9387
18.2796
18.6215
18.9632
19.3036
19.6418
19.9771
20.3094
20.639
20.9666
21.2931
21.6195
21.9465
22.2747
22.6044
22.9356
23.2682
23.6021
23.9377
24.2755
24.6161
24.9606
25.3097
25.6642
26.0241
26.389
26.7583
27.1307
27.5052
27.8809
28.2573
28.6344
29.0126
29.3926
29.775
30.1599
30.5474
30.937
31.3281
31.7201
32.1128
32.5065
32.9019
33.2999
33.7014
34.1066
34.5148
34.9245
35.3335
35.7393
36.1399
36.5339
36.9216
37.304
37.6835
38.0625
38.4435
38.8282
39.2175
39.6113
40.0093
40.4106
40.8145
41.2205
41.6281
42.037
42.4468
42.8574
43.2685
43.6801
44.0923
44.5054
44.9194
45.3341
45.7485
46.1615
46.5721
46.9799
47.3856
47.7914
48.2001
48.6149
49.0382
49.471
49.9125
50.3607
50.813
51.2668
51.7204
52.1727
52.6238
53.0738
53.5228
53.9708
54.4178
54.8641
55.3105
55.758
56.2081
56.662
57.1203
57.5828
58.0492
58.5184
58.9896
59.4621
59.9359
60.4111
60.888
61.3672
61.8484
62.3299
62.8054
63.2647
63.7054
64.1396
64.5856
65.0608
65.4706
66.046
66.3805
67.1897
67.2954
68.3306
67.8829
69.7191
68.2595
74.5724
69.8022
88.8094
79.1402
102.602
80.348
92.8397
90.3115
90.9207
81.5312
79.7465
76.7724
76.9944
76.7789
77.9054
77.5338
79.2658
78.3429
80.5638
79.426
82.5136
80.8603
86.0169
83.3005
94.3125
86.2044
102.001
88.1325
100.021
88.0582
94.8966
88.0385
91.9376
88.9681
91.6323
90.5261
92.8031
92.1807
94.2949
93.8261
95.6344
95.5974
97.2859
97.4573
98.8934
99.2113
100.391
100.935
101.953
102.7
103.399
103.846
104.654
104.805
105.394
105.785
105.227
105.557
105.99
99.376
105.358
88.4236
58.8423
51.4642
-164.034
-981.382
-3702.4
-4794.93
-5318.11
-5586.44
-5725.26
-5747.07
-5705.37
-5620.59
-5504.31
-5362.87
-5200.57
-5018.29
-4819.3
-4606.16
-4374.56
-4121.69
-3857.84
-3569.59
-3261.71
-2932.31
-2583.55
-2214.98
-1829.82
-1433.56
-1035.51
-634.233
-244.802
-41677.4
-33066.6
-26905
-22667
-19519
-17201.9
-15454.2
-14103.5
-13036.4
-12178
-11468.7
-10867.7
-10354.7
-9905.28
-9504.21
-9141.18
-8804.83
-8483.21
-8165.88
-7843.37
-7501.02
-7118.72
-6654.62
-6094.6
-5354.25
-4287.74
-2832.23
-556.697
-95.8491
44.3023
42.2111
85.1839
89.2345
88.7235
95.3778
95.8059
96.9666
97.9131
98.129
98.183
98.1473
98.0587
97.7668
97.4651
97.123
96.4852
96.1554
95.3538
95.1479
94.0337
94.0794
92.6109
92.7481
91.1982
91.711
89.9029
90.6206
88.5901
89.8216
87.3213
90.3935
86.6548
93.4811
86.8959
98.503
87.0996
100.415
85.3323
93.0419
82.4509
85.0175
80.135
81.8002
78.7945
79.9529
77.7588
78.7056
77.0151
77.4219
76.3158
76.5527
76.3568
79.3068
81.0978
90.4428
89.9826
92.4841
80.1561
102.834
79.0788
89.035
69.596
74.478
68.076
69.5717
67.7352
68.1997
67.1595
67.0562
66.2452
65.9138
65.3403
64.9337
64.4586
64.0129
63.5797
63.1403
62.6804
62.2
61.7081
61.2121
60.7156
60.2197
59.7234
59.2254
58.7257
58.2261
57.7289
57.236
56.7466
56.2588
55.7703
55.2806
54.791
54.3037
53.8212
53.3448
52.8755
52.4137
51.9596
51.5129
51.0726
50.6363
50.2013
49.7656
49.3284
48.8907
48.4543
48.0208
47.5909
47.1642
46.7397
46.3164
45.8942
45.4738
45.0563
44.6424
44.2323
43.8253
43.4205
43.017
42.6146
42.2134
41.8141
41.4173
41.0234
40.6323
40.2437
39.8571
39.4721
39.0885
38.7062
38.3251
37.9452
37.5666
37.1896
36.8148
36.4431
36.0749
35.7107
35.3501
34.9923
34.6361
34.2805
33.9248
33.5689
33.2133
32.8585
32.505
32.1529
31.8016
31.4498
31.0964
30.7405
30.3816
30.0202
29.6576
29.2953
28.935
28.5778
28.2244
27.8745
27.5274
27.182
26.837
26.4912
26.1438
25.794
25.4418
25.087
24.7298
24.3709
24.0109
23.6507
23.2913
22.934
22.5796
22.2288
21.8818
21.5385
21.198
20.8596
20.522
20.1846
19.8469
19.5092
19.1723
18.8373
18.5057
18.1788
17.8573
17.5414
17.2306
16.9236
16.6186
16.3139
16.0076
15.6985
15.3859
15.0698
14.751
14.4307
14.11
13.7905
13.4731
13.1585
12.8469
12.538
12.2314
11.9264
11.6222
11.3183
11.0143
10.71
10.4055
10.1007
9.79579
9.49091
9.18601
8.88101
8.57577
8.27014
7.96403
7.6575
7.35078
7.04432
6.73875
6.43488
6.13362
5.83593
5.5427
5.25474
4.97267
4.69689
4.42753
4.1644
3.90701
3.65455
3.40593
3.15999
2.91561
2.67176
2.42812
2.18475
1.94191
1.69895
1.45569
1.21541
0.990146
0.796816
0.612659
0.448072
0.307913
0.333845
0.331735
0.320798
0.310161
0.309939
0.310838
0.31177
0.313322
0.315085
0.317026
0.318319
0.318674
0.318706
0.317508
0.315715
0.354467
0.389784
0.408207
0.416716
0.422148
0.425633
0.427787
0.429074
0.429746
0.429972
0.429848
0.429446
0.428819
0.428012
0.427059
0.42599
0.424831
0.423602
0.422321
0.421003
0.419661
0.418307
0.416953
0.415605
0.414271
0.412957
0.411671
0.410416
0.409196
0.408016
0.406878
0.405785
0.404738
0.40374
0.402793
0.401899
0.401061
0.400281
0.399563
0.39891
0.398326
0.397815
0.397382
0.397031
0.396768
0.396597
0.396523
0.39655
0.396682
0.39692
0.397266
0.397723
0.398289
0.398963
0.399743
0.400623
0.401601
0.40267
0.403823
0.405052
0.406348
0.407701
0.409103
0.41054
0.412002
0.413476
0.414948
0.4164
0.417817
0.419177
0.420458
0.421637
0.422684
0.423571
0.424265
0.424729
0.424917
0.424772
0.424212
0.42309
0.421188
0.41809
0.413348
0.404494
0.385249
0.349607
0.316441
0.316318
0.317046
0.317078
0.317018
0.317163
0.316971
0.316821
0.316648
0.315778
0.310161
0.298616
0.311948
0.322722
0.324357
-250.962
-278.245
-314.754
-358.801
-412.779
-474.389
-530.827
-579.403
-625.841
-671.413
-725.093
-780.93
-829.721
-864.624
-877.958
-888.621
-939.988
-998.555
-1040.51
-1082.87
-1125.24
-1176.3
-1268.44
-1393.68
-1532.3
-1699.07
-1914.88
-2203.43
-2594.54
-3137.46
-3930.63
-5144.49
-7080.51
-10304.7
-15739.7
-25000.3
0.489229
0.505181
0.509124
0.508447
0.532016
0.548112
0.557361
0.564067
0.569972
0.57519
0.580308
0.585481
0.591551
0.598421
0.610681
0.633438
0.657505
0.672569
0.682776
0.690042
0.695109
0.698647
0.701022
0.702533
0.703376
0.703691
0.703573
0.703103
0.702343
0.701346
0.700157
0.698816
0.697356
0.695805
0.694185
0.692518
0.690823
0.689114
0.687405
0.685705
0.684026
0.682374
0.680757
0.67918
0.677646
0.676161
0.674726
0.673345
0.672018
0.670749
0.66954
0.668394
0.667316
0.666309
0.665378
0.66453
0.663771
0.663109
0.662552
0.662105
0.661781
0.661584
0.661522
0.661601
0.661827
0.662203
0.662731
0.663412
0.664245
0.665226
0.666351
0.667613
0.669004
0.670513
0.672127
0.673835
0.675621
0.67747
0.679365
0.681287
0.683215
0.685128
0.687
0.688804
0.690509
0.69208
0.69348
0.694667
0.6956
0.69623
0.696503
0.696357
0.695713
0.69446
0.692444
0.689373
0.684933
0.678401
0.668918
0.65301
0.629819
0.608746
0.59936
0.592483
0.587211
0.582086
0.577241
0.572381
0.566788
0.560638
0.552629
0.530101
0.468801
0.487221
0.485504
0.46521
-24142.3
-22107.7
-19889.6
-17870.3
-16173.3
-14779.6
-13639.2
-12701.8
-11922.9
-11265.3
-10700.8
-10209.5
-9774.97
-9383.98
-9025.47
-8689.07
-8364.8
-8043.42
-7715.57
-7369.74
-6988.92
-6566.86
-6118.74
-5401.33
-3630.2
-617.345
-20.9382
85.8361
102.571
79.86
83.2311
87.6849
90.4806
93.5328
95.1726
96.2508
97.0345
97.4634
97.6384
97.6619
97.5734
97.3716
97.0906
96.732
96.2868
95.8264
95.3028
94.7967
94.1928
93.6647
92.9875
92.4472
91.7965
91.3549
90.7245
90.3776
89.7447
89.564
88.712
88.7722
87.5086
87.9662
86.6349
86.959
85.9828
85.6579
84.3194
84.4121
82.9542
83.065
81.7092
81.408
80.3343
79.8369
79.0593
78.7057
78.22
78.1458
77.8585
77.6455
77.1368
76.7035
75.7674
75.9656
73.6494
77.4164
76.4054
74.5359
71.6263
72.4255
68.9094
70.6016
68.4298
69.1568
68.2675
68.0031
67.4378
66.9568
66.4165
65.9271
65.4351
64.9661
64.4996
64.0403
63.5868
63.1305
62.6636
62.1842
61.6958
61.2033
60.71
60.2166
59.7218
59.2246
58.7255
58.2268
57.7313
57.2397
56.7511
56.2631
55.7739
55.2836
54.7939
54.3072
53.8254
53.3495
52.8802
52.4182
51.9642
51.5179
51.0781
50.6423
50.2074
49.7715
49.3342
48.8965
48.4605
48.0278
47.5985
47.1721
46.7473
46.3233
45.9004
45.4795
45.0619
44.6482
44.2384
43.8316
43.4266
43.0227
42.6198
42.2184
41.8192
41.4228
41.0293
40.6386
40.2501
39.8635
39.4784
39.0946
38.7122
38.331
37.951
37.5722
37.1949
36.8199
36.4479
36.0797
35.7155
35.3551
34.9975
34.6414
34.2858
33.93
33.574
33.2184
32.8638
32.5106
32.1589
31.8079
31.4563
31.1029
30.7466
30.3873
30.0255
29.6626
29.3001
28.9399
28.583
28.2299
27.8804
27.5337
27.1885
26.8435
26.4977
26.1501
25.8002
25.4477
25.0926
24.7352
24.3759
24.0155
23.6549
23.2952
22.9377
22.5832
22.2325
21.8857
21.5425
21.2022
20.8637
20.5261
20.1884
19.8504
19.5123
19.1751
18.84
18.5085
18.1819
17.861
17.5457
17.2356
16.9292
16.6246
16.3201
16.0138
15.7045
15.3916
15.0752
14.7561
14.4355
14.1149
13.7954
13.4783
13.164
12.8528
12.5443
12.2379
11.9331
11.629
11.325
11.021
10.7167
10.4121
10.1073
9.80252
9.49777
9.19304
8.88821
8.58311
8.27758
7.97153
7.665
7.35825
7.05174
6.74612
6.44224
6.14102
5.84342
5.55038
5.26268
4.98094
4.70557
4.43669
4.17415
3.91749
3.66597
3.41866
3.17457
2.9325
2.69152
2.45115
2.21092
1.97048
1.72915
1.48535
1.24006
1.00504
0.836477
0.659835
0.618454
0.78064
1.01608
1.26978
1.53043
1.79776
2.07141
2.34963
2.63086
2.9137
3.19693
3.47978
3.76181
4.04284
4.32279
4.60158
4.87904
5.15501
5.42924
5.70146
5.97139
6.23884
6.50372
6.76601
7.02582
7.28336
7.53897
7.79304
8.04604
8.29848
8.55087
8.80374
9.05756
9.3128
9.5699
9.82931
10.0915
10.3569
10.6261
10.8998
11.1784
11.4627
11.7532
12.0502
12.3539
12.6643
12.9808
13.3028
13.6291
13.9585
14.2897
14.6216
14.9532
15.2839
15.6137
15.9428
16.272
16.602
16.9336
17.2677
17.6044
17.9437
18.2849
18.6271
18.9691
19.3097
19.6478
19.9829
20.3149
20.6442
20.9715
21.2978
21.624
21.9511
22.2794
22.6091
22.9403
23.2728
23.6066
23.942
24.2795
24.62
24.9645
25.3138
25.6685
26.0288
26.3941
26.7637
27.1363
27.5108
27.8863
28.2624
28.6392
29.0173
29.3973
29.7798
30.1651
30.5529
30.9427
31.3338
31.7256
32.1179
32.5111
32.9062
33.3042
33.7059
34.1116
34.5205
34.9308
35.3403
35.7462
36.1465
36.54
36.9269
37.3087
37.6876
38.0664
38.4474
38.8323
39.2218
39.6159
40.014
40.4155
40.8194
41.2255
41.6331
42.042
42.4517
42.8621
43.2729
43.6842
44.0962
44.5094
44.9238
45.3389
45.7537
46.1669
46.5773
46.9846
47.3898
47.7951
48.2038
48.619
49.043
49.4767
49.9189
50.3675
50.8196
51.2729
51.7257
52.1774
52.628
53.0778
53.5267
53.9746
54.4214
54.8674
55.3134
55.7607
56.2107
56.6646
57.1228
57.5852
58.0511
58.5194
58.9894
59.4605
59.9324
60.4055
60.8801
61.3567
61.8347
62.3124
62.786
63.2519
63.7098
64.1651
64.6254
65.0931
65.5647
66.06
66.5517
67.0915
67.5705
68.1325
68.4032
69.2884
68.5962
70.7434
69.1062
72.5923
71.8023
74.7651
76.6702
77.6528
73.9308
76.2864
76.1031
77.0812
77.555
78.1026
78.355
78.6745
78.7712
79.2905
79.6706
80.4834
81.0075
82.136
82.4447
83.8721
83.7652
85.3335
85.2658
86.6894
87.0872
88.1691
87.8627
89.3668
88.9676
90.3928
90.4331
91.4373
91.7523
92.565
93.0628
93.8747
94.4632
95.2648
95.9849
96.8841
97.6463
98.4969
99.241
100.048
100.794
101.569
102.288
102.926
103.487
104.017
104.413
104.765
104.929
104.793
104.565
103.74
101.445
99.6742
93.837
94.8215
116.403
87.3839
-103.903
-1427.54
-4257.96
-5315.55
-5576.45
-5646.15
-5657.68
-5619.71
-5542.37
-5433.99
-5300.28
-5144.46
-4968.43
-4774.03
-4562.61
-4333.81
-4087.4
-3824.25
-3542.28
-3241.53
-2921.88
-2583.81
-2228.13
-1856.76
-1474.09
-1085.13
-683.083
-721.221
-755.59
-794.245
-837.412
-883.173
-927.76
-967.281
-1005.59
-1046.74
-1092.7
-1142.36
-1192.28
-1237.57
-1275.19
-1315.95
-1373.95
-1441.35
-1507.87
-1575.63
-1655.06
-1755.9
-1890.28
-2062.56
-2274.66
-2538.46
-2875.32
-3313.87
-3893.59
-4676.11
-5761.13
-7304.96
-9541.91
-12810.4
-17534.3
-17579.2
-16828.6
-15808.1
-14763.3
-13794.8
-12934.6
-12183.4
-11530
-10958.8
-10455.3
-10007.5
-9604.25
-9235.78
-8893.03
-8567.49
-8251.18
-7936.8
-7617.92
-7288.97
-6944.84
-6573.23
-5977.29
-4300.56
-810.399
-2.64961
68.7452
83.93
89.9902
85.6874
86.8932
89.1057
91.3089
93.4222
94.8173
95.8403
96.5542
96.9873
97.2067
97.268
97.209
97.042
96.7883
96.4599
96.0618
95.6315
95.1474
94.6545
94.1006
93.5728
92.9702
92.431
91.8375
91.3499
90.7814
90.3498
89.796
89.4174
88.8134
88.4777
87.7839
87.5333
86.7984
86.5395
85.7782
85.3486
84.4636
84.0671
83.1986
82.7525
81.8916
81.3334
80.5196
79.9563
79.2888
78.8556
78.3761
78.0861
77.6884
77.3351
76.7519
76.1665
75.3404
74.9706
74.259
74.4552
74.0609
73.4625
72.15
71.5484
70.3418
70.0881
69.2751
68.9891
68.4394
68.0003
67.4729
66.9805
66.4613
65.9687
65.4763
64.9985
64.525
64.0582
63.5949
63.1294
62.6564
62.1745
61.6862
61.1953
60.7039
60.212
59.7182
59.2217
58.7236
58.2265
57.7325
57.2419
56.7533
56.2645
55.7747
55.2843
54.7954
54.31
53.8292
53.3537
52.8843
52.4219
51.9676
51.5213
51.0817
50.6461
50.2112
49.7753
49.3381
48.9009
48.4658
48.034
47.6054
47.179
46.7537
46.3288
45.9051
45.4838
45.0662
44.6528
44.2431
43.8362
43.4308
43.0264
42.6231
42.2216
41.8228
41.4269
41.034
40.6437
40.2553
39.8685
39.4831
39.0991
38.7166
38.3354
37.9553
37.5763
37.1988
36.8235
36.4512
36.0828
35.7186
35.3583
35.0007
34.6447
34.2891
33.9333
33.5774
33.2219
32.8675
32.5146
32.1632
31.8124
31.4609
31.1073
30.7507
30.3911
30.0291
29.6661
29.3038
28.9438
28.5872
28.2345
27.8854
27.5388
27.1937
26.8486
26.5026
26.1548
25.8046
25.4518
25.0964
24.7387
24.3791
24.0184
23.6576
23.2978
22.9402
22.5857
22.235
21.8883
21.5451
21.2047
20.8661
20.5282
20.1902
19.8519
19.5137
19.1764
18.8415
18.5104
18.1843
17.8639
17.5493
17.2397
16.9337
16.6294
16.3248
16.0183
15.7087
15.3954
15.0788
14.7595
14.439
14.1185
13.7994
13.4827
13.1689
12.858
12.5498
12.2436
11.9388
11.6346
11.3306
11.0264
10.7219
10.4173
10.1125
9.8078
9.50317
9.1986
8.89393
8.58897
8.28355
7.97757
7.67108
7.36435
7.05785
6.75227
6.44846
6.14736
5.84995
5.55714
5.26973
4.98834
4.71337
4.44496
4.18297
3.927
3.67638
3.43027
3.18765
2.94717
2.70802
2.46933
2.23042
1.99078
1.74957
1.5062
1.25994
0.989008
0.874136
0.68994
0.699554
0.690295
0.756991
0.787153
0.80158
0.813102
0.823007
0.831798
0.840663
0.85042
0.861561
0.873585
0.887891
0.906176
0.923483
0.937549
0.948525
0.956754
0.96296
0.967555
0.97089
0.973201
0.974689
0.975504
0.975763
0.975556
0.974967
0.974059
0.972888
0.971507
0.96996
0.968283
0.966507
0.964658
0.962762
0.960836
0.958897
0.956961
0.955038
0.953139
0.951272
0.949443
0.947658
0.94592
0.944233
0.942599
0.94102
0.9395
0.938041
0.936647
0.935323
0.934074
0.932908
0.931831
0.930855
0.929987
0.929239
0.928623
0.928149
0.927829
0.927671
0.927686
0.927881
0.928261
0.92883
0.92959
0.93054
0.931676
0.932993
0.934483
0.936134
0.937935
0.939869
0.94192
0.94407
0.946297
0.948581
0.950896
0.953216
0.955512
0.957748
0.959889
0.961892
0.963712
0.965297
0.966595
0.967547
0.968092
0.968164
0.967691
0.966587
0.964745
0.96201
0.958177
0.95287
0.945792
0.936039
0.923439
0.906905
0.891114
0.878532
0.868194
0.857845
0.84808
0.838385
0.828939
0.818802
0.808396
0.799741
0.772251
0.593373
0.696903
0.654579
0.7648
1.03635
1.29012
1.54968
1.81655
2.08936
2.36613
2.64562
2.9267
3.20825
3.48962
3.77045
4.05052
4.32974
4.60798
4.88502
5.16059
5.43445
5.70635
5.97601
6.24325
6.50798
6.7702
7.03002
7.28764
7.54337
7.7976
8.05079
8.30342
8.55598
8.80899
9.06291
9.31819
9.57527
9.8346
10.0966
10.3618
10.6308
10.9042
11.1826
11.4666
11.7569
12.0539
12.3576
12.6681
12.9847
13.3068
13.6333
13.9628
14.2941
14.6259
14.9574
15.288
15.6175
15.9465
16.2754
16.6053
16.937
17.2712
17.6082
17.9477
18.2892
18.6316
18.9737
19.3142
19.6522
19.9871
20.3189
20.6479
20.975
21.3012
21.6274
21.9545
22.2828
22.6126
22.9437
23.2761
23.6098
23.945
24.2825
24.623
24.9676
25.3172
25.6722
26.0329
26.3985
26.7682
27.1408
27.5151
27.8903
28.2661
28.6427
29.0206
29.4007
29.7834
30.169
30.557
30.947
31.338
31.7296
32.1215
32.5144
32.9091
33.3069
33.7087
34.1147
34.5239
34.9345
35.344
35.7497
36.1496
36.5426
36.929
37.3105
37.6893
38.0682
38.4494
38.8346
39.2244
39.6187
40.0169
40.4183
40.8222
41.2282
41.6357
42.0444
42.4539
42.8639
43.2742
43.6851
44.0969
44.5101
44.9248
45.3403
45.7555
46.1689
46.5794
46.9866
47.3917
47.7973
48.2065
48.6226
49.0476
49.4819
49.9244
50.3726
50.8239
51.276
51.7277
52.1786
52.6288
53.0784
53.5272
53.975
54.4217
54.8676
55.3136
55.761
56.2112
56.6653
57.1235
57.5856
58.0508
58.5182
58.9868
59.4563
59.9265
60.3979
60.8711
61.3464
61.8235
62.301
62.7764
63.2475
63.7144
64.1802
64.6492
65.1247
65.6051
66.1005
66.5953
67.1141
67.604
68.1284
68.569
69.124
69.4258
70.2482
70.5277
71.7454
72.3666
73.7023
74.319
74.7235
74.5482
75.2783
75.67
76.5349
77.162
77.786
78.1733
78.6016
78.9184
79.4314
79.8965
80.5998
81.1946
82.0465
82.6357
83.5448
84.0295
84.9634
85.4082
86.3684
86.8686
87.7214
88.0579
88.9096
89.2623
90.0835
90.5391
91.2802
91.7974
92.5127
93.1013
93.8428
94.4878
95.25
95.9735
96.7848
97.5371
98.3323
99.072
99.8344
100.558
101.278
101.948
102.559
103.099
103.588
103.971
104.265
104.401
104.311
104.018
103.37
101.952
100.611
98.5424
98.9176
104.059
96.7145
74.94
-145.987
-2033.91
-4863.73
-5625.7
-5691.37
-5646.69
-5588.72
-5507.57
-5400.15
-5268.89
-5115.99
-4942.87
-4751
-4541.53
-4315.05
-4071.8
-3812.03
-3534.8
-3239.88
-2927.09
-2596.72
-2249.28
-1885.97
-1509.83
-1124.26
-1160.17
-1197.76
-1236.82
-1276.23
-1315.04
-1350.84
-1386.17
-1424.76
-1468.07
-1516.31
-1568.35
-1621.55
-1674.01
-1731.59
-1802.07
-1883.26
-1970.66
-2066.04
-2179.31
-2319.28
-2495.18
-2715.21
-2988.07
-3327.84
-3756.09
-4301.98
-5005.11
-5922.92
-7138.18
-8765.16
-10948
-13845.9
0.738869
-14011.4
-13724.8
-13230.3
-12661.3
-12087.9
-11542.2
-11036.6
-10572.9
-10148.4
-9759.17
-9399.62
-9063.85
-8745.79
-8439.33
-8138.64
-7839.08
-7538.99
-7240.68
-6936.02
-6435.92
-5012.71
-1299.73
-44.5475
82.4426
83.0915
83.6861
87.9944
87.5842
89.2564
90.7489
92.2729
93.8028
94.9084
95.759
96.369
96.7523
96.9561
97.0184
96.9651
96.809
96.5696
96.2608
95.8901
95.4817
95.0243
94.5474
94.0238
93.508
92.943
92.4119
91.8483
91.3484
90.8025
90.3358
89.7967
89.3587
88.7979
88.3853
87.7831
87.4041
86.7696
86.3768
85.6961
85.2176
84.4648
83.9692
83.2181
82.6811
81.929
81.3405
80.6172
80.0483
79.4286
78.9546
78.4555
78.063
77.609
77.1839
76.6367
76.0992
75.4524
74.996
74.4094
74.2036
73.6337
73.0712
72.1675
71.5262
70.6511
70.1743
69.4916
69.0606
68.5101
68.034
67.51
67.0117
66.5001
66.005
65.511
65.0273
64.5484
64.0752
63.6045
63.1315
62.6526
62.1673
61.678
61.1875
60.697
60.2059
59.7128
59.2172
58.7206
58.2252
57.7323
57.2421
56.7528
56.2632
55.7731
55.2835
54.7961
54.3123
53.8327
53.3576
52.8877
52.4247
51.9698
51.5234
51.0838
50.6481
50.2132
49.7774
49.3405
48.9043
48.4703
48.0396
47.6116
47.1851
46.759
46.3333
45.9088
45.4872
45.0696
44.6563
44.2466
43.8393
43.4332
43.0282
42.6246
42.2234
41.8251
41.4301
41.0378
40.6477
40.2592
39.8721
39.4864
39.1022
38.7196
38.3385
37.9584
37.5794
37.2016
36.8259
36.4532
36.0846
35.7202
35.3598
35.0023
34.6464
34.2908
33.9351
33.5793
33.2239
32.8698
32.5172
32.166
31.8152
31.4636
31.1098
30.7531
30.3933
30.0313
29.6684
29.3064
28.9469
28.5908
28.2384
27.8895
27.5429
27.1977
26.8524
26.5061
26.1579
25.8073
25.4542
25.0985
24.7405
24.3808
24.02
23.6591
23.2993
22.9417
22.5872
22.2365
21.8897
21.5464
21.2058
20.8669
20.5286
20.1903
19.8519
19.5136
19.1765
18.842
18.5114
18.186
17.8663
17.5523
17.2431
16.9373
16.6329
16.3281
16.0213
15.7113
15.3977
15.0809
14.7617
14.4414
14.1213
13.8027
13.4865
13.1732
12.8627
12.5547
12.2486
11.9436
11.6393
11.3351
11.0307
10.726
10.4213
10.1165
9.81186
9.50735
9.20293
8.89841
8.5936
8.2883
7.98241
7.676
7.36934
7.06294
6.75748
6.45383
6.15294
5.85578
5.56327
5.27619
4.99515
4.72055
4.45254
4.19104
3.93568
3.68586
3.44077
3.19917
2.95981
2.72159
2.48347
2.24481
2.00463
1.76197
1.51369
1.27087
0.966903
0.917155
1.04854
1.29537
1.55968
1.82813
2.1013
2.37766
2.65634
2.93632
3.21648
3.49648
3.77602
4.05503
4.33343
4.61112
4.88782
5.16317
5.43686
5.70862
5.97819
6.24538
6.51011
6.77237
7.03228
7.29006
7.546
7.80048
8.05395
8.30686
8.55971
8.81296
9.06709
9.32252
9.57969
9.83903
10.101
10.3661
10.6349
10.9081
11.1863
11.4702
11.7603
12.0572
12.3609
12.6713
12.9881
13.3102
13.6367
13.9662
14.2975
14.6292
14.9606
15.291
15.6204
15.9491
16.278
16.6079
16.9397
17.274
17.6111
17.9509
18.2925
18.6349
18.977
19.3174
19.6552
19.9899
20.3215
20.6503
20.9774
21.3035
21.6298
21.9569
22.2853
22.615
22.9461
23.2785
23.612
23.9472
24.2847
24.6253
24.9701
25.32
25.6755
26.0364
26.4023
26.772
27.1444
27.5184
27.8932
28.2686
28.645
29.0228
29.403
29.7859
30.1718
30.5601
30.9502
31.3411
31.7324
32.1239
32.5163
32.9107
33.3083
33.71
34.1159
34.5251
34.9357
35.3449
35.7503
36.1497
36.5423
36.9285
37.3099
37.689
38.0682
38.4499
38.8355
39.2255
39.6199
40.018
40.4193
40.8231
41.2288
41.6361
42.0446
42.4536
42.863
43.2727
43.6831
44.0946
44.5078
44.9226
45.3385
45.754
46.1678
46.5786
46.9861
47.3918
47.7982
48.2086
48.6258
49.0517
49.4865
49.9287
50.376
50.8259
51.2765
51.7269
52.1768
52.6264
53.0758
53.5245
53.9724
54.4192
54.8652
55.3115
55.7594
56.21
56.6643
57.1225
57.5843
58.0487
58.5148
58.982
59.4499
59.9185
60.3887
60.8611
61.3361
61.8136
62.2924
62.7705
63.2464
63.7202
64.1939
64.6705
65.1523
65.6386
66.1349
66.6314
67.1425
67.6388
68.1607
68.6383
69.195
69.6407
70.339
70.8383
71.7313
72.3923
73.315
73.8939
74.4766
74.6982
75.3021
75.7813
76.4625
77.039
77.6252
78.0829
78.5657
78.9853
79.5185
80.0288
80.6875
81.2905
82.0492
82.67
83.466
84.0464
84.8563
85.4045
86.227
86.7754
87.5439
88.0238
88.7677
89.254
89.9784
90.5129
91.2071
91.7822
92.4746
93.0974
93.8133
94.4774
95.2139
95.9289
96.6958
97.4293
98.1879
98.9112
99.6428
100.343
101.029
101.672
102.264
102.795
103.271
103.654
103.947
104.106
104.083
103.891
103.466
102.601
101.874
100.732
100.118
101.328
97.8372
97.6308
88.6674
-306.942
-3019.64
-5305.83
-5742.99
-5675.39
-5592.92
-5505.04
-5395.99
-5264.51
-5112.05
-4939.75
-4748.87
-4540.55
-4315.57
-4074.24
-3817.08
-3543.37
-3252.55
-2944.42
-2618.98
-2276.38
-1917.54
-1544.2
0.824039
0.999463
1.03235
1.04603
1.05985
1.07228
1.08364
1.09564
1.10981
1.12499
1.14055
1.15644
1.17294
1.18856
1.20222
1.21339
1.2224
1.22945
1.23497
1.2392
1.24234
1.24455
1.24598
1.24675
1.24696
1.24671
1.24606
1.2451
1.24387
1.24243
1.24082
1.23908
1.23724
1.23533
1.23336
1.23137
1.22937
1.22737
1.22538
1.22341
1.22147
1.21956
1.2177
1.21588
1.2141
1.21237
1.21069
1.20907
1.2075
1.206
1.20457
1.20323
1.20197
1.20081
1.19977
1.19885
1.19807
1.19746
1.19701
1.19674
1.19667
1.19681
1.19716
1.19772
1.19851
1.19952
1.20074
1.20218
1.20382
1.20564
1.20765
1.20981
1.21211
1.21452
1.21703
1.21961
1.22223
1.22486
1.22745
1.22998
1.23239
1.23463
1.23665
1.23837
1.23973
1.24066
1.24109
1.24093
1.24011
1.23855
1.23616
1.23284
1.22842
1.22273
1.2154
1.2063
1.19484
1.18193
1.16788
1.1551
1.1413
1.12753
1.11288
1.0989
1.08609
1.07354
1.05852
1.03513
0.99915
-1580.57
-1618.24
-1655.31
-1691.74
-1726.79
-1762.14
-1800.5
-1843.62
-1892.36
-1946.51
-2005.08
-2067.74
-2137.85
-2219.89
-2314.11
-2420.15
-2541.25
-2684.61
-2857.97
-3070.23
-3331.02
-3651.41
-4046.32
-4535.85
-5146.19
-5911.91
-6878.98
-8105.93
-9661.82
-11616.2
-1951.18
-1987.18
-2023.24
-2059.15
-2094.41
-2130.4
-2169.19
-2212.86
-2262.78
-2319.27
-2382.23
-2452.39
-2532.17
-2624.5
-2730.86
-2853.06
-2994.98
-3162.69
-3363.2
-3605.09
-3898.1
-4253.51
-4684.71