/*--------------------------------*- C++ -*----------------------------------*\
| =========                 |                                                 |
| \\      /  F ield         | OpenFOAM: The Open Source CFD Toolbox           |
|  \\    /   O peration     | Version:  2.2.1                                 |
|   \\  /    A nd           | Web:      www.OpenFOAM.org                      |
|    \\/     M anipulation  |                                                 |
\*---------------------------------------------------------------------------*/
FoamFile
{
    version     2.0;
    format      ascii;
    class       surfaceScalarField;
    location    "3e-05";
    object      phi;
}
// * * * * * * * * * * * * * * * * * * * * * * * * * * * * * * * * * * * * * //

dimensions      [0 3 -1 0 0 0 0];

internalField   nonuniform List<scalar> 
44563
(
-1.29317e-12
-2.12736e-12
-6.04258e-13
-6.88912e-13
-3.10624e-13
-2.93635e-13
-1.72113e-13
-1.3851e-13
-1.04503e-13
-6.76105e-14
-6.79199e-14
-3.65827e-14
-4.64194e-14
-2.15005e-14
-3.31629e-14
-1.32564e-14
-2.4748e-14
-8.41491e-15
-1.95015e-14
-5.2465e-15
-1.61799e-14
-3.32164e-15
-1.43029e-14
-1.87694e-15
-1.37996e-14
-5.03316e-16
-1.40964e-14
2.96814e-16
-1.52253e-14
1.12882e-15
-1.7233e-14
2.00777e-15
-2.00573e-14
2.82425e-15
-2.37281e-14
3.67084e-15
-2.84656e-14
4.73743e-15
-3.46207e-14
6.1551e-15
-4.25763e-14
7.95568e-15
-5.30874e-14
1.05111e-14
-6.7288e-14
1.42006e-14
-8.70684e-14
1.97804e-14
-1.14693e-13
2.76244e-14
-1.54722e-13
4.00289e-14
-2.1119e-13
5.64686e-14
-2.65616e-13
5.44256e-14
-2.50958e-13
-1.46584e-14
-1.40818e-13
-1.1014e-13
-2.32452e-13
9.16341e-14
-7.93617e-14
-1.5309e-13
-1.08505e-13
2.91434e-14
-8.60407e-14
-2.24644e-14
-5.39373e-14
-3.21035e-14
-5.00079e-14
-3.92937e-15
-3.62936e-14
-1.37143e-14
-2.61011e-14
-1.01925e-14
-1.90559e-14
-7.04522e-15
-1.24165e-14
-6.63936e-15
-6.80346e-15
-5.61309e-15
-2.19084e-15
-4.61262e-15
1.1424e-15
-3.33324e-15
4.02466e-15
-2.88227e-15
6.18966e-15
-2.16499e-15
7.42682e-15
-1.23717e-15
9.51627e-15
-2.08945e-15
1.00033e-14
-4.87033e-16
1.22897e-14
-2.28643e-15
1.17244e-14
5.65371e-16
1.50221e-14
-3.29771e-15
1.34204e-14
1.60167e-15
1.80166e-14
-4.59619e-15
1.66375e-14
1.37907e-15
2.25887e-14
-5.95113e-15
1.96624e-14
2.92629e-15
2.67603e-14
-7.09789e-15
2.17387e-14
5.02158e-15
3.0113e-14
-8.37436e-15
2.15297e-14
8.58337e-15
3.1716e-14
-1.01863e-14
1.847e-14
1.32459e-14
3.09655e-14
-1.24954e-14
1.27706e-14
1.81949e-14
2.75873e-14
-1.48167e-14
5.35158e-15
2.22357e-14
2.26104e-14
-1.72588e-14
-1.1722e-15
2.37826e-14
1.48443e-14
-1.60165e-14
-5.02481e-15
1.98691e-14
7.69204e-15
-1.27168e-14
-6.05967e-15
1.37517e-14
5.6777e-15
-1.17374e-14
-3.78043e-15
9.45812e-15
7.84136e-15
-1.16218e-14
2.7589e-15
5.08246e-15
1.33381e-14
-1.05792e-14
1.04487e-14
2.88939e-15
1.8879e-14
-8.43028e-15
1.55594e-14
3.31956e-15
2.1364e-14
-5.80459e-15
1.57739e-14
5.59009e-15
2.03056e-14
-4.53162e-15
1.23034e-14
8.00213e-15
1.74921e-14
-5.18861e-15
3.5151e-15
1.3977e-14
6.3134e-15
-2.7983e-15
-1.49886e-14
2.1302e-14
9.29316e-15
-2.42818e-14
-1.79303e-15
1.10862e-14
9.38553e-15
-1.11786e-14
3.56111e-16
9.02942e-15
8.31448e-15
-7.95837e-15
-1.99086e-15
1.03053e-14
5.97065e-15
-7.96151e-15
-9.10902e-16
6.88155e-15
4.07399e-15
-4.98489e-15
1.28374e-15
2.79025e-15
4.21843e-15
-2.93469e-15
4.0627e-15
1.55736e-16
6.24054e-15
-2.17785e-15
7.07763e-15
-8.37098e-16
8.58113e-15
-1.5035e-15
9.50482e-15
-9.23688e-16
1.04311e-14
-9.2633e-16
1.11355e-14
-7.04385e-16
1.15959e-14
-4.60377e-16
1.18432e-14
-2.47337e-16
1.196e-14
-1.16767e-16
1.20193e-14
-5.92688e-17
1.20533e-14
-3.39955e-17
1.20722e-14
-1.89343e-17
1.20809e-14
-8.69011e-18
1.20825e-14
-1.57997e-18
1.20791e-14
3.35031e-18
1.20721e-14
7.07959e-18
1.20617e-14
1.03669e-17
1.20482e-14
1.34935e-17
1.2032e-14
1.62352e-17
1.20138e-14
1.82117e-17
1.19944e-14
1.93194e-17
1.19746e-14
1.98849e-17
1.19541e-14
2.0449e-17
1.19327e-14
2.13973e-17
1.191e-14
2.2743e-17
1.18858e-14
2.41898e-17
1.18604e-14
2.5391e-17
1.18342e-14
2.61718e-17
1.18076e-14
2.65637e-17
1.1781e-14
2.66962e-17
1.17543e-14
2.66486e-17
1.17279e-14
2.64168e-17
1.17019e-14
2.59834e-17
1.16765e-14
2.54301e-17
1.16515e-14
2.49656e-17
1.16267e-14
2.48256e-17
1.16016e-14
2.51235e-17
1.15758e-14
2.57536e-17
1.15494e-14
2.6434e-17
1.15225e-14
2.6868e-17
1.14956e-14
2.69053e-17
1.1469e-14
2.66285e-17
1.14427e-14
2.62776e-17
1.14166e-14
2.60973e-17
1.13904e-14
2.6191e-17
1.13639e-14
2.64782e-17
1.13372e-14
2.67665e-17
1.13103e-14
2.68634e-17
1.12836e-14
2.6691e-17
1.12573e-14
2.63102e-17
1.12314e-14
2.58803e-17
1.12059e-14
2.55523e-17
1.11805e-14
2.54138e-17
1.1155e-14
2.54514e-17
1.11294e-14
2.55783e-17
1.11038e-14
2.56897e-17
1.1078e-14
2.57136e-17
1.10524e-14
2.56394e-17
1.10269e-14
2.55045e-17
1.10015e-14
2.53686e-17
1.09763e-14
2.5267e-17
1.09511e-14
2.52088e-17
1.09259e-14
2.51757e-17
1.09007e-14
2.51514e-17
1.08756e-14
2.51398e-17
1.08504e-14
2.51598e-17
1.08252e-14
2.52253e-17
1.07999e-14
2.5311e-17
1.07745e-14
2.5351e-17
1.07493e-14
2.52562e-17
1.07243e-14
2.4966e-17
1.06998e-14
2.44861e-17
1.06759e-14
2.39038e-17
1.06526e-14
2.33517e-17
1.06296e-14
2.29613e-17
1.06068e-14
2.27953e-17
1.0584e-14
2.28239e-17
1.0561e-14
2.29369e-17
1.05381e-14
2.29949e-17
1.05152e-14
2.28849e-17
1.04926e-14
2.25691e-17
1.04705e-14
2.21049e-17
1.04489e-14
2.16107e-17
1.04276e-14
2.1233e-17
1.04066e-14
2.10866e-17
1.03853e-14
2.12223e-17
1.03637e-14
2.161e-17
1.03416e-14
2.2153e-17
1.03189e-14
2.27139e-17
1.02957e-14
2.31491e-17
1.02724e-14
2.3346e-17
1.02491e-14
2.32469e-17
1.02263e-14
2.286e-17
1.0204e-14
2.22576e-17
1.01825e-14
2.15495e-17
1.01616e-14
2.08602e-17
1.01413e-14
2.02975e-17
1.01214e-14
1.993e-17
1.01016e-14
1.97781e-17
1.00818e-14
1.98172e-17
1.00618e-14
1.9993e-17
1.00415e-14
2.02426e-17
1.0021e-14
2.05111e-17
1.00003e-14
2.076e-17
9.9793e-15
2.09674e-17
9.95818e-15
2.1119e-17
9.93698e-15
2.11991e-17
9.91579e-15
2.11896e-17
9.89472e-15
2.10665e-17
9.8739e-15
2.08175e-17
9.85345e-15
2.04535e-17
9.83343e-15
2.00138e-17
9.81386e-15
1.95713e-17
9.79465e-15
1.9215e-17
9.77562e-15
1.9033e-17
9.75653e-15
1.90853e-17
9.73715e-15
1.93857e-17
9.71726e-15
1.98904e-17
9.69675e-15
2.05033e-17
9.67566e-15
2.10923e-17
9.65415e-15
2.15206e-17
9.63247e-15
2.16809e-17
9.61095e-15
2.15184e-17
9.5899e-15
2.10498e-17
9.56953e-15
2.03593e-17
9.54995e-15
1.95803e-17
9.53108e-15
1.88668e-17
9.51272e-15
1.83605e-17
9.49456e-15
1.81609e-17
9.47625e-15
1.83094e-17
9.45747e-15
1.87822e-17
9.43797e-15
1.95011e-17
9.41761e-15
2.03511e-17
9.39641e-15
2.1206e-17
9.37445e-15
2.19538e-17
9.35194e-15
2.25175e-17
9.32907e-15
2.28621e-17
9.30608e-15
2.29998e-17
9.2831e-15
2.29798e-17
9.26023e-15
2.28723e-17
9.23747e-15
2.27525e-17
9.21479e-15
2.26854e-17
9.19207e-15
2.27133e-17
9.16922e-15
2.28524e-17
9.14613e-15
2.30916e-17
9.12273e-15
2.34023e-17
9.09898e-15
2.37486e-17
9.07488e-15
2.40964e-17
9.05046e-15
2.44235e-17
9.02573e-15
2.47262e-17
9.00071e-15
2.50236e-17
8.97536e-15
2.53472e-17
8.94962e-15
2.574e-17
8.92338e-15
2.62447e-17
8.89648e-15
2.68952e-17
8.86877e-15
2.77096e-17
8.84008e-15
2.86877e-17
8.81027e-15
2.98122e-17
8.77921e-15
3.10537e-17
8.74684e-15
3.23775e-17
8.71309e-15
3.37462e-17
8.67797e-15
3.51177e-17
8.64154e-15
3.64318e-17
8.60394e-15
3.75968e-17
8.56545e-15
3.84901e-17
8.52647e-15
3.89812e-17
8.48746e-15
3.90135e-17
8.44873e-15
3.87326e-17
8.41008e-15
3.86508e-17
8.37035e-15
3.97383e-17
8.32702e-15
4.3324e-17
8.27641e-15
5.06161e-17
8.21392e-15
6.24874e-17
8.13449e-15
7.94255e-17
8.03258e-15
1.01907e-16
7.89707e-15
1.3551e-16
7.69647e-15
2.00599e-16
7.40692e-15
2.89554e-16
7.02841e-15
3.78515e-16
6.63706e-15
3.91349e-16
6.3419e-15
2.95169e-16
6.11236e-15
2.29532e-16
5.87275e-15
2.39609e-16
5.56203e-15
3.10717e-16
3.83733e-16
-5.54721e-15
3.51657e-16
-5.84309e-15
2.95877e-16
-6.11653e-15
2.73445e-16
-6.43175e-15
3.15223e-16
-6.81818e-15
3.86426e-16
-7.18813e-15
3.69954e-16
-7.49129e-15
3.03157e-16
-7.72622e-15
2.34937e-16
-7.90708e-15
1.80852e-16
-8.04647e-15
1.39388e-16
-8.1528e-15
1.06328e-16
-8.23365e-15
8.08478e-17
-8.29563e-15
6.19792e-17
-8.34539e-15
4.97617e-17
-8.38881e-15
4.34189e-17
-8.43005e-15
4.12376e-17
-8.47115e-15
4.11041e-17
-8.51243e-15
4.12783e-17
-8.55313e-15
4.07056e-17
-8.59212e-15
3.89917e-17
-8.6284e-15
3.62771e-17
-8.66139e-15
3.29949e-17
-8.69103e-15
2.96408e-17
-8.71768e-15
2.66474e-17
-8.74202e-15
2.43319e-17
-8.76486e-15
2.28445e-17
-8.78706e-15
2.21921e-17
-8.80932e-15
2.22605e-17
-8.8322e-15
2.28782e-17
-8.85604e-15
2.38432e-17
-8.88101e-15
2.4966e-17
-8.90709e-15
2.60836e-17
-8.93416e-15
2.70759e-17
-8.96203e-15
2.78651e-17
-8.99044e-15
2.84155e-17
-9.01917e-15
2.87245e-17
-9.04798e-15
2.88158e-17
-9.07671e-15
2.87248e-17
-9.1052e-15
2.84976e-17
-9.13338e-15
2.81796e-17
-9.16119e-15
2.78091e-17
-9.18861e-15
2.74175e-17
-9.21563e-15
2.70201e-17
-9.24225e-15
2.6622e-17
-9.26846e-15
2.62132e-17
-9.29424e-15
2.57772e-17
-9.31954e-15
2.52917e-17
-9.34427e-15
2.47358e-17
-9.36837e-15
2.40992e-17
-9.39176e-15
2.33843e-17
-9.41437e-15
2.261e-17
-9.43618e-15
2.18123e-17
-9.45721e-15
2.10365e-17
-9.47755e-15
2.03351e-17
-9.49731e-15
1.97572e-17
-9.51665e-15
1.93392e-17
-9.53574e-15
1.90991e-17
-9.55478e-15
1.90309e-17
-9.57388e-15
1.91031e-17
-9.59314e-15
1.92643e-17
-9.6126e-15
1.94501e-17
-9.63219e-15
1.9594e-17
-9.65184e-15
1.96408e-17
-9.6714e-15
1.95587e-17
-9.69074e-15
1.93432e-17
-9.70976e-15
1.90239e-17
-9.72841e-15
1.86505e-17
-9.7467e-15
1.82905e-17
-9.7647e-15
1.80093e-17
-9.78256e-15
1.78583e-17
-9.80042e-15
1.78649e-17
-9.81845e-15
1.80257e-17
-9.83675e-15
1.83092e-17
-9.85542e-15
1.86632e-17
-9.87444e-15
1.90307e-17
-9.89381e-15
1.93631e-17
-9.91344e-15
1.96341e-17
-9.93329e-15
1.98455e-17
-9.95332e-15
2.00254e-17
-9.97354e-15
2.02254e-17
-9.99404e-15
2.04935e-17
-1.00149e-14
2.0865e-17
-1.00362e-14
2.13443e-17
-1.00581e-14
2.18977e-17
-1.00806e-14
2.24587e-17
-1.01035e-14
2.29411e-17
-1.01268e-14
2.32619e-17
-1.01502e-14
2.33637e-17
-1.01734e-14
2.32334e-17
-1.01963e-14
2.2909e-17
-1.02188e-14
2.24721e-17
-1.02408e-14
2.20319e-17
-1.02625e-14
2.16977e-17
-1.02841e-14
2.15541e-17
-1.03057e-14
2.16309e-17
-1.03276e-14
2.19032e-17
-1.03499e-14
2.22934e-17
-1.03726e-14
2.26942e-17
-1.03956e-14
2.30006e-17
-1.04187e-14
2.31439e-17
-1.04418e-14
2.31137e-17
-1.04648e-14
2.29603e-17
-1.04876e-14
2.27793e-17
-1.05102e-14
2.26757e-17
-1.0533e-14
2.2727e-17
-1.05559e-14
2.29521e-17
-1.05792e-14
2.32964e-17
-1.06029e-14
2.3646e-17
-1.06267e-14
2.38669e-17
-1.06506e-14
2.38463e-17
-1.06741e-14
2.35404e-17
-1.06971e-14
2.29981e-17
-1.07195e-14
2.23571e-17
-1.07413e-14
2.18068e-17
-1.07628e-14
2.15305e-17
-1.07844e-14
2.16471e-17
-1.08066e-14
2.21707e-17
-1.08296e-14
2.30037e-17
-1.08536e-14
2.39684e-17
-1.08785e-14
2.48641e-17
-1.0904e-14
2.55292e-17
-1.09299e-14
2.58867e-17
-1.09558e-14
2.59606e-17
-1.09817e-14
2.58429e-17
-1.10073e-14
2.56558e-17
-1.10328e-14
2.54984e-17
-1.10583e-14
2.54174e-17
-1.10837e-14
2.54026e-17
-1.11091e-14
2.54107e-17
-1.11345e-14
2.53993e-17
-1.11598e-14
2.53581e-17
-1.11851e-14
2.53121e-17
-1.12104e-14
2.53045e-17
-1.12358e-14
2.5364e-17
-1.12613e-14
2.54813e-17
-1.12869e-14
2.56024e-17
-1.13125e-14
2.56548e-17
-1.13381e-14
2.55798e-17
-1.13635e-14
2.53842e-17
-1.13887e-14
2.51551e-17
-1.14137e-14
2.50393e-17
-1.14389e-14
2.51853e-17
-1.14646e-14
2.5678e-17
-1.14911e-14
2.64848e-17
-1.15185e-14
2.74461e-17
-1.15468e-14
2.83188e-17
-1.15757e-14
2.886e-17
-1.16046e-14
2.89127e-17
-1.1633e-14
2.8464e-17
-1.16607e-14
2.76441e-17
-1.16874e-14
2.66687e-17
-1.17131e-14
2.57534e-17
-1.17382e-14
2.50401e-17
-1.17627e-14
2.45615e-17
-1.1787e-14
2.42617e-17
-1.1811e-14
2.40508e-17
-1.18349e-14
2.38651e-17
-1.18586e-14
2.3686e-17
-1.18821e-14
2.35271e-17
-1.19055e-14
2.33953e-17
-1.19288e-14
2.32522e-17
-1.19518e-14
2.30083e-17
-1.19743e-14
2.25482e-17
-1.19961e-14
2.17756e-17
-1.20167e-14
2.06383e-17
-1.20359e-14
1.9133e-17
-1.20532e-14
1.72753e-17
-1.20682e-14
1.50625e-17
-1.20807e-14
1.24416e-17
-1.20899e-14
9.28314e-18
-1.20953e-14
5.36046e-18
-1.20956e-14
3.08885e-19
-1.20891e-14
-6.49907e-18
-1.2073e-14
-1.61053e-17
-1.20424e-14
-3.0639e-17
-1.19865e-14
-5.58532e-17
-1.1873e-14
-1.13501e-16
-1.16291e-14
-2.43905e-16
-1.11727e-14
-4.56445e-16
-1.04729e-14
-6.99812e-16
-9.55249e-15
-9.20369e-16
-8.6306e-15
-9.21883e-16
-7.13582e-15
-1.49478e-15
-6.30056e-15
-8.35264e-16
-4.13589e-15
-2.16467e-15
-4.28556e-15
1.49663e-16
-1.37737e-15
-2.90819e-15
-4.137e-15
2.75962e-15
7.87381e-16
-4.92438e-15
-6.00734e-15
6.79472e-15
1.90198e-15
-7.90932e-15
-8.25893e-15
1.01609e-14
-3.63028e-16
-7.89591e-15
-9.30588e-15
8.94285e-15
1.64537e-15
-1.09513e-14
-9.31395e-15
1.09593e-14
1.5106e-14
-2.442e-14
-6.22338e-15
2.13294e-14
-3.44307e-15
-2.78031e-15
-1.7551e-14
1.41079e-14
-1.23274e-14
-5.22353e-15
-2.04052e-14
8.07782e-15
-1.57828e-14
-4.62249e-15
-2.14616e-14
5.67884e-15
-1.55558e-14
-5.90576e-15
-1.90377e-14
3.48189e-15
-1.04859e-14
-8.55183e-15
-1.36044e-14
3.11851e-15
-2.90325e-15
-1.07011e-14
-8.22889e-15
5.32564e-15
3.5472e-15
-1.17761e-14
-6.2297e-15
9.7769e-15
5.72922e-15
-1.19589e-14
-8.50764e-15
1.42369e-14
4.59236e-15
-1.31e-14
-1.59774e-14
2.05697e-14
9.34096e-16
-1.69115e-14
-2.35357e-14
2.44698e-14
-5.48344e-15
-1.80522e-14
-2.83096e-14
2.28262e-14
-1.28567e-14
-1.54529e-14
-3.13814e-14
1.85247e-14
-1.83765e-14
-1.30049e-14
-3.18126e-14
1.34361e-14
-2.12146e-14
-1.0598e-14
-3.00759e-14
8.86127e-15
-2.13269e-14
-8.74903e-15
-2.70797e-14
5.75282e-15
-1.96728e-14
-7.40685e-15
-2.35767e-14
3.90387e-15
-1.73503e-14
-6.22644e-15
-1.87883e-14
1.43802e-15
-1.4113e-14
-4.67528e-15
-1.57872e-14
1.67416e-15
-1.23782e-14
-3.40901e-15
-1.35605e-14
1.18232e-15
-1.09202e-14
-2.64032e-15
-1.0923e-14
2.86034e-18
-8.72525e-15
-2.19779e-15
-7.75694e-15
-9.68303e-16
-6.08598e-15
-1.67096e-15
-4.08454e-15
-2.00144e-15
-3.80168e-17
-4.04652e-15
3.20147e-15
-3.23949e-15
9.76036e-15
-6.55889e-15
1.63935e-14
-6.63318e-15
2.33531e-14
-6.95957e-15
3.52969e-14
-1.19438e-14
4.6581e-14
-1.12841e-14
4.60243e-14
5.56683e-16
8.33038e-14
-3.72795e-14
7.00553e-14
1.32486e-14
7.11715e-14
-1.11622e-15
2.13118e-13
-1.41946e-13
1.2201e-13
9.11081e-14
1.99641e-13
-7.76313e-14
1.83017e-13
1.66246e-14
1.47214e-13
3.58024e-14
1.05869e-13
4.13454e-14
7.56101e-14
3.02587e-14
5.34672e-14
2.21428e-14
3.7729e-14
1.57382e-14
2.63798e-14
1.13492e-14
1.78842e-14
8.49558e-15
1.12024e-14
6.68188e-15
5.73425e-15
5.46811e-15
1.08701e-15
4.64724e-15
-2.9826e-15
4.06961e-15
-6.75671e-15
3.77411e-15
-1.03457e-14
3.58896e-15
-1.36522e-14
3.30652e-15
-1.68301e-14
3.17793e-15
-2.02649e-14
3.43482e-15
-2.32251e-14
2.96012e-15
-2.62655e-14
3.04041e-15
-2.91985e-14
2.93301e-15
-3.19645e-14
2.76604e-15
-3.40773e-14
2.11274e-15
-3.49986e-14
9.2138e-16
-3.3762e-14
-1.23662e-15
-2.92089e-14
-4.55317e-15
-1.96413e-14
-9.56756e-15
-3.20023e-15
-1.64411e-14
2.45055e-14
-2.77058e-14
-4.88971e-14
7.18665e-16
-1.61828e-14
7.3637e-16
-2.51014e-14
3.71614e-16
-3.16916e-14
-2.80942e-16
-3.61096e-14
-9.33602e-16
-3.88211e-14
-1.31062e-15
-4.00985e-14
-1.42203e-15
-3.9851e-14
-1.38089e-15
-3.82152e-14
-1.2805e-15
-3.54824e-14
-1.17108e-15
-3.19644e-14
-1.07229e-15
-2.79357e-14
-9.78048e-16
-2.36086e-14
-8.84812e-16
-1.91361e-14
-7.75655e-16
-1.46217e-14
-6.28206e-16
-1.01209e-14
-4.47663e-16
-5.72418e-15
-2.33562e-16
-1.34974e-15
-1.12605e-16
2.71206e-15
-3.98449e-17
6.48697e-15
4.54983e-18
1.00687e-14
3.36589e-17
1.34989e-14
5.37603e-17
1.67882e-14
6.82103e-17
1.99409e-14
7.89574e-17
2.29612e-14
8.70562e-17
2.58554e-14
9.31594e-17
2.86305e-14
9.76754e-17
3.12941e-14
1.00889e-16
3.38533e-14
1.03009e-16
3.63149e-14
1.04207e-16
3.86849e-14
1.04623e-16
4.09684e-14
1.04378e-16
4.31697e-14
1.03576e-16
4.52922e-14
1.02302e-16
4.73385e-14
1.00628e-16
4.93105e-14
9.86131e-17
5.12096e-14
9.63006e-17
5.30365e-14
9.37275e-17
5.47914e-14
9.09205e-17
5.64744e-14
8.7901e-17
5.8085e-14
8.46852e-17
5.96227e-14
8.12862e-17
6.10866e-14
7.77143e-17
6.2476e-14
7.39798e-17
6.37898e-14
7.00897e-17
6.50272e-14
6.60535e-17
6.61872e-14
6.18792e-17
6.72688e-14
5.75748e-17
6.82713e-14
5.31505e-17
6.91937e-14
4.8615e-17
7.00354e-14
4.39795e-17
7.07957e-14
3.92529e-17
7.14739e-14
3.44474e-17
7.20696e-14
2.95736e-17
7.25822e-14
2.46428e-17
7.30115e-14
1.96654e-17
7.33571e-14
1.46527e-17
7.36188e-14
9.6146e-18
7.37962e-14
4.56011e-18
7.38895e-14
-5.02906e-19
7.38983e-14
-5.56724e-18
7.38228e-14
-1.06299e-17
7.36629e-14
-1.5687e-17
7.34187e-14
-2.07387e-17
7.30904e-14
-2.5788e-17
7.26781e-14
-3.08397e-17
7.2182e-14
-3.59014e-17
7.16023e-14
-4.0983e-17
7.09395e-14
-4.60969e-17
7.01938e-14
-5.12551e-17
6.93655e-14
-5.64703e-17
6.84552e-14
-6.1753e-17
6.74631e-14
-6.71084e-17
6.63899e-14
-7.25363e-17
6.52358e-14
-7.80255e-17
6.40016e-14
-8.35502e-17
6.26875e-14
-8.9069e-17
6.12943e-14
-9.45178e-17
5.98224e-14
-9.98081e-17
5.82725e-14
-1.04824e-16
5.66451e-14
-1.09422e-16
5.49409e-14
-1.13432e-16
5.31605e-14
-1.16657e-16
5.13047e-14
-1.18891e-16
4.9374e-14
-1.19924e-16
4.73689e-14
-1.19562e-16
4.52898e-14
-1.17649e-16
4.31366e-14
-1.14087e-16
4.09087e-14
-1.08859e-16
3.86049e-14
-1.02034e-16
3.62224e-14
-9.37582e-17
3.37576e-14
-8.4216e-17
3.12047e-14
-7.35511e-17
2.85563e-14
-6.17386e-17
2.58034e-14
-4.83667e-17
2.29353e-14
-3.23639e-17
1.99411e-14
-1.12758e-17
1.68104e-14
1.90096e-17
1.35346e-14
6.74675e-17
1.01033e-14
1.44905e-16
6.49641e-15
2.76107e-16
2.64893e-15
4.78381e-16
-1.52193e-15
6.76082e-16
-5.97214e-15
8.29209e-16
-1.04082e-14
9.56581e-16
-1.49427e-14
1.0592e-15
-1.95014e-14
1.16661e-15
-2.40147e-14
1.2945e-15
-2.84029e-14
1.48057e-15
-3.25255e-14
1.75029e-15
-3.61823e-14
2.05903e-15
-3.90486e-14
2.32615e-15
-4.07993e-14
2.26141e-15
-4.09253e-14
1.43104e-15
-3.90361e-14
3.25665e-16
-3.59454e-14
-4.18571e-16
-3.15111e-14
-6.10432e-16
-2.50222e-14
-1.61802e-14
-6.66821e-14
-8.95708e-15
-8.70915e-14
-3.60925e-15
-1.0531e-13
-1.08736e-14
-1.20674e-13
-2.2979e-14
-1.32974e-13
-3.60639e-14
-1.41865e-13
-4.82659e-14
-1.47726e-13
-5.87679e-14
-1.53483e-13
-6.55089e-14
-1.54064e-13
-6.68282e-14
-1.49544e-13
-6.50575e-14
-1.43106e-13
-6.33622e-14
-1.34586e-13
-6.43171e-14
-1.25221e-13
-6.86466e-14
-1.18045e-13
-7.61109e-14
-1.14516e-13
-8.45136e-14
-1.10087e-13
-9.08146e-14
-1.04035e-13
-9.68855e-14
-9.93877e-14
-1.07947e-13
-9.89812e-14
-1.1873e-13
-1.00252e-13
-1.22488e-13
-9.39524e-14
-1.18917e-13
-8.36202e-14
-1.11691e-13
-7.2274e-14
-1.04395e-13
-5.97517e-14
-1.00771e-13
-4.75574e-14
-1.00272e-13
-3.73589e-14
-9.95742e-14
-2.76604e-14
-9.73564e-14
-1.77257e-14
-9.28938e-14
-7.43909e-15
-8.55e-14
4.07146e-15
-7.35563e-14
1.788e-14
-5.49984e-14
3.69475e-14
-2.87497e-14
6.58275e-14
6.75389e-15
1.17067e-13
5.48296e-14
2.26624e-13
1.16545e-13
4.5342e-13
1.97631e-13
8.64765e-13
2.30084e-13
-2.41247e-13
-1.64718e-14
5.87418e-16
-1.68374e-14
6.39095e-16
-1.74485e-14
9.26308e-16
-1.84537e-14
1.3916e-15
-1.94083e-14
1.32453e-15
-2.01522e-14
1.04707e-15
-2.07086e-14
7.9135e-16
-2.11338e-14
6.06104e-16
-2.1464e-14
4.69498e-16
-2.17263e-14
3.68643e-16
-2.19356e-14
2.90158e-16
-2.21045e-14
2.30846e-16
-2.22452e-14
1.90468e-16
-2.23697e-14
1.67935e-16
-2.2487e-14
1.58581e-16
-2.2602e-14
1.56042e-16
-2.27154e-14
1.54716e-16
-2.28259e-14
1.51193e-16
-2.29311e-14
1.44222e-16
-2.3029e-14
1.3421e-16
-2.31186e-14
1.22525e-16
-2.31997e-14
1.10776e-16
-2.32735e-14
1.0039e-16
-2.33415e-14
9.23566e-17
-2.34058e-14
8.71408e-17
-2.34683e-14
8.47287e-17
-2.35308e-14
8.47262e-17
-2.35944e-14
8.65356e-17
-2.36601e-14
8.94722e-17
-2.3728e-14
9.28887e-17
-2.37981e-14
9.62403e-17
-2.38702e-14
9.91205e-17
-2.39436e-14
1.01278e-16
-2.40178e-14
1.02595e-16
-2.40921e-14
1.03067e-16
-2.41661e-14
1.02764e-16
-2.42392e-14
1.01813e-16
-2.4311e-14
1.00358e-16
-2.43814e-14
9.85505e-17
-2.44501e-14
9.65261e-17
-2.45171e-14
9.4398e-17
-2.45823e-14
9.22501e-17
-2.46458e-14
9.01368e-17
-2.47077e-14
8.80837e-17
-2.4768e-14
8.60938e-17
-2.48269e-14
8.41554e-17
-2.48844e-14
8.2252e-17
-2.49407e-14
8.03729e-17
-2.49958e-14
7.85187e-17
-2.50499e-14
7.67128e-17
-2.51031e-14
7.49871e-17
-2.51554e-14
7.33886e-17
-2.52071e-14
7.19675e-17
-2.52581e-14
7.07665e-17
-2.53086e-14
6.98146e-17
-2.53586e-14
6.91185e-17
-2.54082e-14
6.86608e-17
-2.54575e-14
6.83986e-17
-2.55065e-14
6.8271e-17
-2.55553e-14
6.8206e-17
-2.56038e-14
6.81345e-17
-2.56522e-14
6.80016e-17
-2.57004e-14
6.77784e-17
-2.57485e-14
6.74709e-17
-2.57966e-14
6.71084e-17
-2.58447e-14
6.67468e-17
-2.58929e-14
6.64489e-17
-2.59411e-14
6.62712e-17
-2.59895e-14
6.62504e-17
-2.6038e-14
6.63961e-17
-2.60867e-14
6.669e-17
-2.61355e-14
6.70902e-17
-2.61843e-14
6.75453e-17
-2.62333e-14
6.80073e-17
-2.62824e-14
6.84468e-17
-2.63316e-14
6.88618e-17
-2.63811e-14
6.92778e-17
-2.64308e-14
6.97489e-17
-2.64809e-14
7.03281e-17
-2.65315e-14
7.10621e-17
-2.65826e-14
7.19638e-17
-2.66342e-14
7.30023e-17
-2.66864e-14
7.41004e-17
-2.67391e-14
7.5146e-17
-2.67922e-14
7.60157e-17
-2.68455e-14
7.66049e-17
-2.6899e-14
7.68562e-17
-2.69526e-14
7.67763e-17
-2.70061e-14
7.64398e-17
-2.70596e-14
7.59752e-17
-2.71131e-14
7.55383e-17
-2.71667e-14
7.52765e-17
-2.72204e-14
7.52994e-17
-2.72744e-14
7.56416e-17
-2.73288e-14
7.6264e-17
-2.73835e-14
7.7057e-17
-2.74387e-14
7.78702e-17
-2.74943e-14
7.85549e-17
-2.75501e-14
7.90054e-17
-2.76062e-14
7.91906e-17
-2.76624e-14
7.91645e-17
-2.77187e-14
7.90464e-17
-2.7775e-14
7.89807e-17
-2.78313e-14
7.90874e-17
-2.78878e-14
7.94239e-17
-2.79445e-14
7.99551e-17
-2.80014e-14
8.05759e-17
-2.80587e-14
8.11323e-17
-2.81163e-14
8.14899e-17
-2.81743e-14
8.15778e-17
-2.82328e-14
8.14231e-17
-2.82915e-14
8.11511e-17
-2.83507e-14
8.09486e-17
-2.84102e-14
8.10009e-17
-2.84699e-14
8.14265e-17
-2.853e-14
8.22321e-17
-2.85903e-14
8.33048e-17
-2.86508e-14
8.44489e-17
-2.87114e-14
8.54532e-17
-2.8772e-14
8.61623e-17
-2.88327e-14
8.65311e-17
-2.88933e-14
8.66174e-17
-2.8954e-14
8.65592e-17
-2.90149e-14
8.65049e-17
-2.90759e-14
8.65552e-17
-2.91373e-14
8.67301e-17
-2.91988e-14
8.69766e-17
-2.92606e-14
8.72083e-17
-2.93226e-14
8.73565e-17
-2.93846e-14
8.74074e-17
-2.94467e-14
8.74088e-17
-2.95089e-14
8.744e-17
-2.95711e-14
8.75704e-17
-2.96334e-14
8.78157e-17
-2.96959e-14
8.8127e-17
-2.97587e-14
8.84072e-17
-2.98217e-14
8.85579e-17
-2.98848e-14
8.85299e-17
-2.9948e-14
8.83584e-17
-3.00111e-14
8.81599e-17
-3.0074e-14
8.80911e-17
-3.01366e-14
8.8283e-17
-3.01989e-14
8.87805e-17
-3.0261e-14
8.9506e-17
-3.03229e-14
9.02713e-17
-3.03849e-14
9.08359e-17
-3.0447e-14
9.0987e-17
-3.05091e-14
9.06118e-17
-3.05712e-14
8.97325e-17
-3.0633e-14
8.84893e-17
-3.06944e-14
8.7075e-17
-3.0755e-14
8.56652e-17
-3.08148e-14
8.43635e-17
-3.08737e-14
8.31882e-17
-3.09318e-14
8.2095e-17
-3.09889e-14
8.10139e-17
-3.10451e-14
7.98753e-17
-3.11002e-14
7.86032e-17
-3.11539e-14
7.71009e-17
-3.12059e-14
7.52403e-17
-3.12558e-14
7.28683e-17
-3.1303e-14
6.98369e-17
-3.13473e-14
6.60289e-17
-3.1388e-14
6.1357e-17
-3.14246e-14
5.57246e-17
-3.14563e-14
4.89751e-17
-3.14821e-14
4.08344e-17
-3.15005e-14
3.08714e-17
-3.15097e-14
1.84491e-17
-3.1507e-14
2.63908e-18
-3.14887e-14
-1.79574e-17
-3.14497e-14
-4.55542e-17
-3.1382e-14
-8.38148e-17
-3.12732e-14
-1.39432e-16
-3.1103e-14
-2.26025e-16
-3.08478e-14
-3.68705e-16
-3.04974e-14
-5.94293e-16
-3.00537e-14
-9.00144e-16
-2.95138e-14
-1.23966e-15
-2.88909e-14
-1.54335e-15
-2.80026e-14
-1.81017e-15
-2.74099e-14
-2.08745e-15
-2.60911e-14
-2.15411e-15
-2.59441e-14
-2.31163e-15
-2.38949e-14
-1.89959e-15
-2.47114e-14
-2.09166e-15
-2.09292e-14
-1.02258e-15
-2.28225e-14
-3.03109e-15
-1.74741e-14
1.44637e-15
-1.74727e-14
-7.91072e-15
-1.26841e-14
5.37228e-15
-8.88465e-15
-1.16954e-14
-6.79795e-15
6.85615e-15
-1.11467e-14
-6.60252e-15
-5.61698e-15
5.42961e-15
-3.61427e-14
6.10575e-15
-2.7535e-14
1.27217e-14
-2.45847e-14
-5.73052e-15
-1.77579e-14
7.28109e-15
-2.30566e-14
7.51389e-17
-1.99054e-14
4.92657e-15
-2.786e-14
3.3321e-15
-2.57446e-14
3.56349e-15
-3.22618e-14
6.11386e-16
-2.85625e-14
-2.17327e-16
-3.33769e-14
-3.73744e-15
-2.70691e-14
-3.18935e-15
-3.24805e-14
-5.28968e-15
-2.44413e-14
-2.7136e-15
-3.19564e-14
-4.26096e-15
-2.31096e-14
9.30036e-16
-3.2587e-14
-2.48145e-15
-2.35355e-14
5.18531e-15
-3.55099e-14
-1.12561e-15
-2.22784e-14
7.33822e-15
-3.95311e-14
3.41294e-16
-2.24343e-14
7.3729e-15
-4.32343e-14
2.74781e-15
-2.85166e-14
8.10844e-15
-4.37595e-14
-2.1003e-16
-3.28731e-14
7.63837e-15
-4.4065e-14
-1.81305e-15
-3.55178e-14
4.8889e-15
-4.45105e-14
-1.60526e-15
-3.73669e-14
1.71762e-15
-4.39101e-14
-2.2058e-15
-3.75231e-14
-6.34127e-16
-4.18938e-14
-3.03618e-15
-3.61139e-14
-1.87604e-15
-3.86655e-14
-3.67489e-15
-3.42477e-14
-2.97975e-15
-3.52895e-14
-3.63341e-15
-3.11607e-14
-2.45467e-15
-3.15348e-14
-3.03492e-15
-2.78389e-14
-2.51357e-15
-2.71345e-14
-3.34476e-15
-2.36851e-14
-3.44651e-15
-2.15837e-14
-4.29918e-15
-1.77553e-14
-4.79673e-15
-1.36292e-14
-5.79701e-15
-8.20574e-15
-7.42492e-15
-2.62723e-15
-9.62505e-15
5.91249e-15
-1.17792e-14
1.44206e-14
-1.5067e-14
2.57793e-14
-1.79919e-14
4.05052e-14
-2.16855e-14
5.54862e-14
-2.69248e-14
7.38931e-14
-2.96911e-14
1.09056e-13
-3.46063e-14
1.2069e-13
-4.89132e-14
1.7838e-13
-4.44413e-14
2.6205e-13
-8.47868e-14
2.30613e-13
-1.1051e-13
2.84535e-13
3.71869e-14
2.68172e-13
-6.12685e-14
2.56426e-13
2.83702e-14
2.22639e-13
6.95897e-14
1.98939e-13
6.50454e-14
1.64089e-13
6.51087e-14
1.30305e-13
5.59272e-14
1.01089e-13
4.49539e-14
7.73582e-14
3.508e-14
5.80136e-14
2.78401e-14
4.1957e-14
2.27385e-14
2.8306e-14
1.91191e-14
1.64144e-14
1.65389e-14
5.75631e-15
1.47277e-14
-3.94375e-15
1.34742e-14
-1.29605e-14
1.26057e-14
-2.16487e-14
1.19947e-14
-3.00828e-14
1.1612e-14
-3.79165e-14
1.12685e-14
-4.56311e-14
1.06747e-14
-5.26773e-14
1.00866e-14
-5.90601e-14
9.31582e-15
-6.42728e-14
7.97876e-15
-6.76792e-14
5.51907e-15
-6.80948e-14
1.33698e-15
-6.42714e-14
-5.05997e-15
-5.49299e-14
-1.38947e-14
-3.94017e-14
-2.50958e-14
-1.73523e-14
-3.84905e-14
-5.40151e-14
-2.83814e-13
-6.46346e-13
-2.24899e-13
-3.52549e-13
-1.68747e-13
-1.94663e-13
-1.20999e-13
-1.15359e-13
-8.71404e-14
-7.04409e-14
-6.42713e-14
-4.43697e-14
-4.90276e-14
-2.85001e-14
-3.9172e-14
-1.82705e-14
-3.31425e-14
-1.1276e-14
-3.01769e-14
-6.28726e-15
-2.96101e-14
-2.44369e-15
-3.08592e-14
7.4569e-16
-3.39826e-14
3.42022e-15
-3.87813e-14
5.92754e-15
-4.5218e-14
8.44449e-15
-5.34407e-14
1.10469e-14
-6.36733e-14
1.39034e-14
-7.62137e-14
1.72779e-14
-9.15118e-14
2.14532e-14
-1.10308e-13
2.67519e-14
-1.33352e-13
3.3555e-14
-1.61357e-13
4.22058e-14
-1.93173e-13
5.15967e-14
-2.27459e-13
6.19098e-14
-2.59289e-13
7.18594e-14
-2.76943e-13
7.41228e-14
-2.66123e-13
4.36055e-14
-3.02572e-13
2.17906e-14
-3.27475e-13
-8.52365e-14
-2.60107e-13
2.42655e-14
-2.82751e-13
-1.30446e-13
-1.76349e-13
-7.72585e-14
-1.40053e-13
-5.87611e-14
-1.17178e-13
-5.49783e-14
-8.29013e-14
-3.82059e-14
-6.45104e-14
-3.21051e-14
-4.7402e-14
-2.73008e-14
-3.24018e-14
-2.20455e-14
-2.06927e-14
-1.83484e-14
-1.09138e-14
-1.5392e-14
-2.83286e-15
-1.26936e-14
4.11012e-15
-1.02762e-14
9.62343e-15
-8.39557e-15
1.42228e-14
-6.76441e-15
1.84751e-14
-5.48938e-15
2.11858e-14
-4.80016e-15
2.46775e-14
-3.97878e-15
2.60911e-14
-3.70004e-15
2.96618e-14
-3.00532e-15
2.97108e-14
-3.34669e-15
3.39535e-14
-2.64103e-15
3.305e-14
-3.69268e-15
3.75128e-14
-3.08378e-15
3.55211e-14
-3.95943e-15
4.08859e-14
-2.43843e-15
3.71704e-14
-3.38243e-15
4.32487e-14
-1.05668e-15
3.7158e-14
-2.28369e-15
4.41101e-14
1.6313e-15
3.53457e-14
-1.42188e-15
4.3687e-14
4.90457e-15
3.25969e-14
-1.40535e-15
4.31905e-14
7.60123e-15
2.8101e-14
2.72802e-16
4.23284e-14
8.00839e-15
2.21991e-14
2.87046e-15
3.86316e-14
7.35007e-15
2.21154e-14
4.99735e-16
3.48587e-14
7.1258e-15
2.31232e-14
-9.81294e-16
3.19197e-14
4.95522e-15
2.26442e-14
-2.46192e-15
3.14107e-14
6.91609e-16
2.41209e-14
-4.33198e-15
3.20578e-14
-2.85441e-15
2.68443e-14
-5.36569e-15
3.30353e-14
-3.30169e-15
2.83928e-14
-3.78768e-15
3.20266e-14
-3.14279e-16
2.56739e-14
5.48165e-16
2.77455e-14
3.51845e-15
1.99019e-14
3.31194e-15
2.29917e-14
4.91241e-15
1.76681e-14
1.34948e-16
2.44115e-14
7.23356e-15
2.73868e-14
-5.77357e-15
3.58253e-14
1.28635e-14
5.52921e-15
6.01432e-15
1.12313e-14
5.3841e-15
6.55401e-15
-6.50127e-15
8.6502e-15
6.93323e-15
1.24847e-14
-1.17929e-14
1.72379e-14
5.55212e-15
1.7293e-14
-8.01654e-15
2.26682e-14
1.50626e-15
2.07676e-14
-3.08429e-15
2.45913e-14
-1.03344e-15
2.37736e-14
-2.117e-15
2.58454e-14
-1.91608e-15
2.59966e-14
-2.32898e-15
2.73285e-14
-2.16905e-15
2.79267e-14
-2.10164e-15
2.88249e-14
-1.82188e-15
2.9453e-14
-1.5545e-15
2.99982e-14
-1.24956e-15
3.04462e-14
-9.08408e-16
3.08003e-14
-6.01355e-16
3.10587e-14
-3.75188e-16
3.12318e-14
-2.32383e-16
3.13434e-14
-1.45602e-16
3.14139e-14
-8.93926e-17
3.14555e-14
-5.03235e-17
3.14761e-14
-2.2147e-17
3.14809e-14
-1.41564e-18
3.14737e-14
1.42932e-17
3.14572e-14
2.67995e-17
3.14335e-14
3.7241e-17
3.14036e-14
4.60625e-17
3.13686e-14
5.32754e-17
3.1329e-14
5.89011e-17
3.12856e-14
6.3243e-17
3.12392e-14
6.68341e-17
3.11905e-14
7.01631e-17
3.11398e-14
7.34322e-17
3.10874e-14
7.65283e-17
3.10337e-14
7.91873e-17
3.09786e-14
8.12159e-17
3.09226e-14
8.26103e-17
3.08657e-14
8.35158e-17
3.08083e-14
8.41182e-17
3.07502e-14
8.45311e-17
3.06914e-14
8.48077e-17
3.06318e-14
8.49962e-17
3.05716e-14
8.52197e-17
3.05107e-14
8.5648e-17
3.04495e-14
8.63938e-17
3.03878e-14
8.73926e-17
3.03259e-14
8.83978e-17
3.02636e-14
8.91051e-17
3.02012e-14
8.93369e-17
3.01387e-14
8.9155e-17
3.00761e-14
8.88312e-17
3.00135e-14
8.86657e-17
2.99509e-14
8.88091e-17
2.98882e-14
8.91849e-17
2.98254e-14
8.95623e-17
2.97626e-14
8.96985e-17
2.96998e-14
8.94788e-17
2.96371e-14
8.89633e-17
2.95747e-14
8.8332e-17
2.95125e-14
8.77821e-17
2.94505e-14
8.74352e-17
2.93886e-14
8.73088e-17
2.93269e-14
8.73205e-17
2.92652e-14
8.73623e-17
2.92035e-14
8.73463e-17
2.91419e-14
8.72493e-17
2.90803e-14
8.71032e-17
2.90187e-14
8.69629e-17
2.89571e-14
8.6865e-17
2.88956e-14
8.68011e-17
2.8834e-14
8.67323e-17
2.87725e-14
8.6616e-17
2.87112e-14
8.64414e-17
2.86502e-14
8.62375e-17
2.85893e-14
8.60312e-17
2.85288e-14
8.58171e-17
2.84686e-14
8.55355e-17
2.84088e-14
8.50925e-17
2.83494e-14
8.44219e-17
2.82903e-14
8.35371e-17
2.82317e-14
8.25517e-17
2.81734e-14
8.16387e-17
2.81154e-14
8.09545e-17
2.80576e-14
8.05674e-17
2.8e-14