/*--------------------------------*- C++ -*----------------------------------*\
| =========                 |                                                 |
| \\      /  F ield         | OpenFOAM: The Open Source CFD Toolbox           |
|  \\    /   O peration     | Version:  2.2.1                                 |
|   \\  /    A nd           | Web:      www.OpenFOAM.org                      |
|    \\/     M anipulation  |                                                 |
\*---------------------------------------------------------------------------*/
FoamFile
{
    version     2.0;
    format      ascii;
    class       volVectorField;
    location    "3e-05";
    object      U;
}
// * * * * * * * * * * * * * * * * * * * * * * * * * * * * * * * * * * * * * //

dimensions      [0 1 -1 0 0 0 0];

internalField   nonuniform List<vector> 
22464
(
(2.11587 6.02753 -6.84795e-41)
(0.777527 2.63082 -4.94296e-42)
(0.295207 1.12978 0)
(0.122804 0.569003 1.8313e-42)
(0.0475183 0.339365 2.32446e-42)
(0.0200666 0.211511 6.85959e-43)
(0.00872814 0.14105 -2.26087e-43)
(0.00354647 0.0988039 -1.40817e-43)
(0.000990085 0.072439 0)
(-0.00055622 0.0557547 8.22586e-43)
(-0.00135263 0.0452546 4.59669e-46)
(-0.00207922 0.0388876 -5.80778e-43)
(-0.00313236 0.0359085 -3.53464e-44)
(-0.00385055 0.0356946 -3.42743e-44)
(-0.00484187 0.0375641 0)
(-0.00615391 0.0415569 -2.91221e-43)
(-0.00764845 0.0477018 -2.95837e-43)
(-0.00941337 0.055972 2.75988e-43)
(-0.0116966 0.0666493 2.63908e-43)
(-0.0147106 0.080416 0)
(-0.0185846 0.0982113 -2.76398e-43)
(-0.023943 0.121433 -3.67379e-43)
(-0.031767 0.152453 0)
(-0.0436035 0.194957 3.49169e-44)
(-0.0612763 0.254942 0)
(-0.0899141 0.344086 -1.36418e-42)
(-0.130725 0.471982 -5.04746e-42)
(-0.15357 0.598192 4.45149e-43)
(-0.137388 0.621768 9.32847e-50)
(-0.159467 0.535984 -9.02202e-42)
(-0.23044 0.381985 -4.0651e-42)
(-0.0126457 0.489288 2.87604e-42)
(-0.092972 0.248799 1.63687e-42)
(-0.0253065 0.241112 -6.65825e-44)
(0.000410152 0.184803 -6.97624e-43)
(-0.0207537 0.134641 -1.57376e-42)
(-0.00623308 0.110552 -6.44331e-43)
(-0.00437235 0.0815541 -4.55481e-43)
(-0.00394205 0.0584407 -7.0923e-43)
(-0.00132241 0.0406515 -2.73746e-43)
(0.000328872 0.0249327 1.3444e-44)
(0.00148552 0.0116885 -1.07326e-44)
(0.00190885 0.00125551 -1.58412e-44)
(0.00281809 -0.00679284 -9.91233e-45)
(0.00315734 -0.0132269 -7.7935e-44)
(0.00302088 -0.017824 7.06403e-52)
(0.00458258 -0.0218156 8.49687e-44)
(0.00357855 -0.0254463 2.34861e-44)
(0.00589922 -0.0285745 4.92944e-44)
(0.00346995 -0.0314101 9.37747e-44)
(0.00781217 -0.0340794 -5.64359e-52)
(0.00327982 -0.0371682 -1.88396e-43)
(0.010064 -0.0400082 3.91057e-44)
(0.00481096 -0.0451815 8.1501e-44)
(0.0129353 -0.0498711 -3.85163e-43)
(0.00472698 -0.0553649 1.05757e-51)
(0.0154736 -0.0591252 5.35522e-43)
(0.00389368 -0.063854 1.89469e-43)
(0.0178342 -0.0659893 2.12182e-43)
(0.000915097 -0.0685321 5.84991e-43)
(0.0200133 -0.0675124 -2.6412e-51)
(-0.00416068 -0.0672487 -8.13203e-43)
(0.0217056 -0.0622119 8.26838e-43)
(-0.0102571 -0.0593863 6.13418e-43)
(0.0222186 -0.0498704 -5.00499e-43)
(-0.0158094 -0.045483 -5.67297e-43)
(0.0221763 -0.0330932 1.98154e-43)
(-0.0195146 -0.0301538 6.10045e-43)
(0.0184966 -0.0152046 5.31941e-43)
(-0.0180531 -0.0145881 -1.21353e-42)
(0.0133735 -0.00146705 -6.92668e-43)
(-0.0134845 -0.00345161 7.67436e-43)
(0.0117929 0.00265229 3.51911e-43)
(-0.00915265 -0.00322887 -6.28121e-43)
(0.0123675 -0.00331529 -3.0705e-43)
(-0.00311735 -0.0139038 -1.67371e-43)
(0.0135729 -0.0194234 1.59592e-43)
(0.00157965 -0.0310725 9.6524e-44)
(0.0140513 -0.0372582 4.74533e-44)
(0.00331693 -0.045266 2.59298e-43)
(0.012916 -0.0474123 1.4717e-43)
(0.00166117 -0.0491438 -3.44484e-43)
(0.0114103 -0.0461978 -1.82624e-43)
(-0.00189836 -0.043642 1.94525e-43)
(0.0108298 -0.0377916 -2.16718e-43)
(-0.0114817 -0.029011 2.06329e-43)
(0.00475662 -0.011244 3.2771e-43)
(-0.0230426 0.00671698 6.63736e-43)
(0.0237336 0.0108694 -2.71774e-43)
(-0.00857062 -0.0087651 2.64515e-43)
(0.0135459 -0.00847351 -4.07459e-44)
(-0.00833118 -0.0136793 1.8445e-43)
(0.0105182 -0.00948729 -2.46307e-43)
(-0.0109494 -0.0101153 3.9624e-43)
(0.0092532 -0.00379935 1.83813e-43)
(-0.0069464 -0.00735197 0)
(0.0055693 -0.00357727 -1.02839e-43)
(-0.00213556 -0.00698352 -3.9802e-43)
(0.00384895 -0.0068979 -9.78215e-51)
(0.00124793 -0.0105416 2.10679e-43)
(0.00403313 -0.0131217 0)
(0.00323666 -0.0170677 7.87652e-45)
(0.00434838 -0.0201569 1.59571e-44)
(0.00420975 -0.0233209 -1.08656e-45)
(0.00455945 -0.0257788 0)
(0.00464293 -0.027898 -1.59233e-44)
(0.00460556 -0.0294434 -3.00568e-44)
(0.004518 -0.0303844 -3.85177e-44)
(0.0044575 -0.0308607 -3.90228e-44)
(0.00444152 -0.0310793 -3.90064e-44)
(0.00444302 -0.0311894 -3.96398e-44)
(0.00444484 -0.0312528 -3.91853e-44)
(0.00444444 -0.0312876 -3.92467e-44)
(0.00444266 -0.0313009 -3.92811e-44)
(0.00444029 -0.0312978 -3.93692e-44)
(0.00443727 -0.0312828 0)
(0.004433 -0.0312587 0)
(0.00442694 -0.0312275 -3.94738e-44)
(0.00441945 -0.0311899 -3.91931e-44)
(0.00441149 -0.0311467 0)
(0.00440395 -0.0310988 0)
(0.004397 -0.0310475 -1.52947e-52)
(0.00439005 -0.0309939 1.91744e-46)
(0.00438234 -0.0309385 -3.86255e-44)
(0.00437346 -0.0308808 -3.85533e-44)
(0.00436365 -0.0308204 0)
(0.00435346 -0.0307568 0)
(0.00434336 -0.0306905 -3.73549e-44)
(0.00433346 -0.0306224 -3.67756e-44)
(0.00432362 -0.0305535 0)
(0.00431375 -0.0304848 0)
(0.00430394 -0.0304166 0)
(0.00429451 -0.0303493 0)
(0.00428559 -0.0302827 -3.44461e-44)
(0.00427708 -0.0302168 -3.4391e-44)
(0.00426857 -0.0301513 -3.47149e-44)
(0.00425961 -0.0300857 -3.45193e-44)
(0.00424999 -0.0300195 0)
(0.00423984 -0.0299522 0)
(0.00422948 -0.0298839 -3.4126e-44)
(0.00421929 -0.0298149 -3.38565e-44)
(0.00420946 -0.0297458 0)
(0.00419995 -0.029677 0)
(0.00419055 -0.0296086 3.30797e-44)
(0.00418105 -0.0295405 3.32323e-44)
(0.00417134 -0.0294722 -3.30629e-44)
(0.00416141 -0.0294035 -3.30532e-44)
(0.00415141 -0.0293344 0)
(0.00414153 -0.0292654 2.41565e-46)
(0.00413189 -0.0291968 0)
(0.00412246 -0.029129 0)
(0.0041132 -0.029062 0)
(0.00410396 -0.0289957 -3.17126e-44)
(0.00409464 -0.0289297 -3.15947e-44)
(0.00408519 -0.0288637 3.14342e-44)
(0.00407568 -0.0287976 6.24699e-44)
(0.00406616 -0.0287312 6.20359e-44)
(0.00405672 -0.0286649 3.05634e-44)
(0.00404741 -0.0285986 -3.06247e-44)
(0.00403817 -0.0285327 -3.04721e-44)
(0.00402899 -0.028467 -3.06011e-44)
(0.00401981 -0.0284015 -3.0237e-44)
(0.00401063 -0.0283362 0)
(0.00400142 -0.028271 -2.45282e-46)
(0.00399222 -0.0282057 -2.99378e-44)
(0.00398297 -0.0281404 2.30708e-46)
(0.00397365 -0.028075 -2.19664e-46)
(0.00396426 -0.0280095 -2.9461e-44)
(0.00395483 -0.027944 0)
(0.00394544 -0.0278787 -2.89247e-44)
(0.00393624 -0.027814 -2.86383e-44)
(0.0039273 -0.0277502 -2.86062e-44)
(0.00391867 -0.0276876 -5.64233e-44)
(0.00391032 -0.0276263 2.3515e-46)
(0.00390212 -0.027566 -2.3702e-46)
(0.00389393 -0.0275063 -5.61799e-44)
(0.00388565 -0.027447 -2.78611e-44)
(0.00387725 -0.0273877 -2.80521e-44)
(0.00386875 -0.0273284 -5.59532e-44)
(0.00386028 -0.0272693 -2.76501e-44)
(0.00385199 -0.0272107 -2.78081e-44)
(0.00384395 -0.0271531 -2.77925e-44)
(0.0038362 -0.0270964 2.786e-44)
(0.00382864 -0.0270406 5.60166e-44)
(0.00382112 -0.0269854 5.6413e-44)
(0.00381345 -0.0269301 2.81494e-44)
(0.00380551 -0.0268743 -2.85457e-44)
(0.00379723 -0.0268175 -2.85881e-44)
(0.00378864 -0.0267596 -2.87101e-44)
(0.00377987 -0.0267005 -5.66604e-44)
(0.00377107 -0.0266407 -2.80761e-44)
(0.00376242 -0.0265807 2.78002e-44)
(0.00375405 -0.0265212 3.65525e-52)
(0.00374602 -0.0264629 2.37856e-46)
(0.00373832 -0.0264061 -2.51648e-46)
(0.0037309 -0.026351 -2.72929e-44)
(0.00372368 -0.0262975 0)
(0.00371656 -0.0262453 -2.75277e-44)
(0.00370946 -0.0261937 -2.77107e-44)
(0.00370231 -0.0261423 -2.81622e-44)
(0.00369505 -0.0260906 -5.61816e-44)
(0.00368765 -0.0260383 2.34514e-46)
(0.00368007 -0.0259854 -2.19191e-46)
(0.00367233 -0.0259318 -5.68136e-44)
(0.00366442 -0.0258777 -2.81961e-44)
(0.00365641 -0.0258232 2.82741e-44)
(0.00364834 -0.0257685 2.80901e-44)
(0.00364031 -0.0257139 1.53296e-46)
(0.0036324 -0.0256594 -2.75615e-44)
(0.00362469 -0.0256055 1.61549e-46)
(0.00361722 -0.0255523 2.70224e-44)
(0.00361001 -0.0254999 -2.68275e-44)
(0.00360301 -0.0254486 -1.01661e-51)
(0.00359615 -0.0253982 5.33018e-44)
(0.00358931 -0.0253483 -1.86414e-46)
(0.00358237 -0.0252986 -2.66414e-44)
(0.00357522 -0.0252486 -2.67659e-44)
(0.00356778 -0.0251976 -5.30035e-44)
(0.00356004 -0.0251453 1.28641e-46)
(0.00355205 -0.0250916 -1.2248e-46)
(0.00354392 -0.0250368 -2.56219e-44)
(0.00353581 -0.0249812 2.53417e-44)
(0.00352787 -0.0249256 -1.60326e-46)
(0.00352023 -0.0248708 -2.4452e-44)
(0.00351297 -0.0248172 0)
(0.00350608 -0.0247655 -2.41172e-44)
(0.00349949 -0.0247155 2.55114e-46)
(0.00349307 -0.0246669 2.43084e-44)
(0.00348665 -0.0246193 -2.45403e-44)
(0.00348007 -0.0245717 2.52062e-46)
(0.00347319 -0.0245234 -2.37603e-46)
(0.00346591 -0.0244737 -5.04196e-44)
(0.00345821 -0.024422 -2.50815e-44)
(0.00345014 -0.0243684 -2.52668e-44)
(0.00344177 -0.0243127 -2.51522e-44)
(0.00343322 -0.0242553 0)
(0.00342462 -0.0241968 -2.47491e-44)
(0.00341604 -0.0241376 2.18772e-46)
(0.00340756 -0.0240782 2.43281e-44)
(0.00339918 -0.0240189 -2.41745e-44)
(0.0033909 -0.0239598 -2.38194e-44)
(0.00338266 -0.0239008 0)
(0.00337439 -0.0238419 -2.40087e-44)
(0.00336604 -0.0237828 -2.40209e-44)
(0.00335756 -0.0237232 -2.43078e-44)
(0.00334892 -0.023663 -4.81303e-44)
(0.00334011 -0.023602 -2.408e-44)
(0.00333114 -0.0235401 -2.40876e-44)
(0.00332204 -0.0234773 -2.40915e-44)
(0.00331282 -0.0234137 5.62784e-46)
(0.00330348 -0.0233493 -2.41113e-44)
(0.00329401 -0.0232841 -4.8269e-44)
(0.00328437 -0.023218 -2.41653e-44)
(0.00327451 -0.0231507 -2.41964e-44)
(0.00326437 -0.0230818 -2.4216e-44)
(0.00325389 -0.0230111 -1.51037e-61)
(0.003243 -0.0229381 -2.4162e-44)
(0.00323166 -0.0228624 -2.40589e-44)
(0.00321985 -0.0227836 2.93073e-46)
(0.00320755 -0.0227016 -2.39404e-44)
(0.00319475 -0.0226161 -2.33375e-44)
(0.00318146 -0.0225271 -2.29591e-44)
(0.00316772 -0.0224346 -5.99086e-46)
(0.00315363 -0.0223389 2.20506e-44)
(0.00313935 -0.0222404 2.15551e-44)
(0.00312509 -0.0221401 4.24605e-44)
(0.00311109 -0.022039 2.09536e-44)
(0.00309743 -0.0219384 -2.01918e-44)
(0.00308388 -0.0218387 8.27709e-46)
(0.00306965 -0.0217384 1.91876e-44)
(0.00305332 -0.0216329 -5.34621e-46)
(0.00303291 -0.0215141 -2.0145e-44)
(0.00300635 -0.0213709 -1.87719e-44)
(0.00297178 -0.021191 9.22198e-46)
(0.00292746 -0.0209637 1.09651e-45)
(0.00287223 -0.0206805 1.2585e-45)
(0.00280489 -0.0203148 0)
(0.00271722 -0.0198242 -1.41939e-45)
(0.00260784 -0.0191808 1.37995e-45)
(0.00247919 -0.0184063 1.42076e-45)
(0.00236574 -0.0176517 -7.16119e-45)
(0.002232 -0.0169758 -6.44977e-45)
(0.00205644 -0.0162745 2.39614e-45)
(0.00188142 -0.0155185 3.31098e-46)
(0.00150145 -0.013686 -2.15993e-45)
(-0.00150227 -0.0137201 -1.23111e-45)
(-0.00188167 -0.0155071 -4.71941e-45)
(-0.00205367 -0.0162631 1.10527e-46)
(-0.00223186 -0.0170475 5.24264e-45)
(-0.00237649 -0.0178867 -3.06831e-45)
(-0.00252029 -0.0187018 -2.16566e-46)
(-0.00264085 -0.0193863 -1.77191e-46)
(-0.00273929 -0.0199391 1.38919e-45)
(-0.0028188 -0.0203849 -1.18623e-45)
(-0.00288507 -0.0207457 -1.10733e-45)
(-0.00293931 -0.0210327 -9.53769e-46)
(-0.0029828 -0.0212563 -1.1085e-47)
(-0.00301633 -0.021429 -6.84971e-46)
(-0.00304138 -0.0215653 5.90977e-46)
(-0.00306029 -0.0216806 0)
(-0.00307582 -0.0217874 4.92135e-46)
(-0.00309017 -0.021893 -3.71628e-49)
(-0.0031047 -0.0219997 -2.25904e-44)
(-0.00311983 -0.0221063 -1.85603e-49)
(-0.00313535 -0.0222099 2.15145e-44)
(-0.00315066 -0.0223076 -2.18215e-44)
(-0.00316518 -0.0223973 -2.20504e-44)
(-0.00317851 -0.0224781 3.0985e-51)
(-0.00319044 -0.0225505 -2.13018e-44)
(-0.00320098 -0.0226159 -4.24737e-44)
(-0.00321031 -0.0226765 -3.424e-51)
(-0.00321875 -0.0227344 2.00826e-44)
(-0.00322669 -0.0227917 -2.7525e-46)
(-0.00323446 -0.02285 -2.74801e-46)
(-0.00324234 -0.0229105 -2.76737e-46)
(-0.00325056 -0.0229739 2.00092e-44)
(-0.00325921 -0.0230401 1.99456e-44)
(-0.00326834 -0.0231092 -1.99254e-44)
(-0.00327794 -0.0231805 -3.98962e-44)
(-0.00328793 -0.0232536 -2.0012e-44)
(-0.00329822 -0.0233278 -5.6078e-46)
(-0.00330871 -0.0234024 -2.0254e-44)
(-0.00331931 -0.0234771 -2.04284e-44)
(-0.00332993 -0.0235512 -2.0638e-44)
(-0.0033405 -0.0236247 -4.1768e-44)
(-0.00335097 -0.0236972 -2.09401e-44)
(-0.0033613 -0.0237688 -2.14954e-44)
(-0.00337147 -0.0238393 -2.1866e-44)
(-0.00338148 -0.0239087 0)
(-0.00339131 -0.023977 -2.29065e-44)
(-0.00340099 -0.0240443 -2.32243e-44)
(-0.0034105 -0.0241102 2.37318e-44)
(-0.00341985 -0.0241748 -1.56757e-46)
(-0.00342904 -0.0242378 -2.47279e-44)
(-0.00343803 -0.0242991 0)
(-0.00344682 -0.0243585 -2.5549e-44)
(-0.00345539 -0.0244159 -2.5844e-44)
(-0.00346371 -0.0244713 -2.62591e-44)
(-0.00347177 -0.0245249 -5.23206e-44)
(-0.00347957 -0.0245769 2.27645e-46)
(-0.00348714 -0.0246276 -2.27817e-46)
(-0.00349448 -0.0246776 -2.61171e-44)
(-0.00350165 -0.0247272 2.60647e-44)
(-0.0035087 -0.0247767 -2.00166e-46)
(-0.00351567 -0.0248265 -2.60671e-44)
(-0.00352262 -0.0248766 0)
(-0.0035296 -0.0249271 -2.62903e-44)
(-0.00353662 -0.0249777 1.74319e-46)
(-0.00354369 -0.0250282 2.64696e-44)
(-0.00355081 -0.0250783 -2.68153e-44)
(-0.00355795 -0.0251278 2.11379e-46)
(-0.00356507 -0.0251765 -2.27933e-46)
(-0.00357213 -0.0252243 -5.3829e-44)
(-0.00357911 -0.0252714 -2.65356e-44)
(-0.00358599 -0.0253181 -2.6597e-44)
(-0.00359277 -0.0253646 2.48154e-46)
(-0.00359945 -0.0254113 5.23195e-44)
(-0.00360608 -0.0254585 3.9829e-53)
(-0.0036127 -0.0255065 -2.58543e-44)
(-0.00361935 -0.0255554 2.58003e-44)
(-0.00362607 -0.025605 -1.93059e-46)
(-0.00363291 -0.0256554 -2.58795e-44)
(-0.00363989 -0.0257064 -1.90153e-46)
(-0.00364702 -0.0257579 2.60939e-44)
(-0.00365429 -0.02581 2.62106e-44)
(-0.0036617 -0.0258628 -2.65185e-44)
(-0.00366924 -0.0259165 -5.29075e-44)
(-0.00367691 -0.0259714 1.77056e-46)
(-0.00368471 -0.0260275 -1.66859e-46)
(-0.00369264 -0.0260851 -5.41362e-44)
(-0.00370071 -0.0261439 -2.72422e-44)
(-0.00370891 -0.0262036 -2.77758e-44)
(-0.00371724 -0.0262638 -2.81867e-44)
(-0.00372564 -0.0263239 0)
(-0.00373409 -0.0263835 -2.89599e-44)
(-0.00374253 -0.0264422 2.06377e-46)
(-0.00375091 -0.0264998 -2.18494e-46)
(-0.00375921 -0.0265565 1.13662e-52)
(-0.0037674 -0.0266127 2.9706e-44)
(-0.0037755 -0.0266689 -2.97702e-44)
(-0.00378354 -0.0267254 -5.96885e-44)
(-0.00379157 -0.0267827 -2.97522e-44)
(-0.00379965 -0.0268409 -3.01031e-44)
(-0.00380783 -0.0269 -3.02879e-44)
(-0.00381612 -0.0269596 3.06934e-44)
(-0.00382452 -0.0270194 6.13348e-44)
(-0.003833 -0.027079 6.163e-44)
(-0.00384149 -0.0271384 3.09217e-44)
(-0.00384996 -0.0271974 -3.1e-44)
(-0.00385837 -0.0272565 -3.10769e-44)
(-0.00386673 -0.0273159 -3.13883e-44)
(-0.00387507 -0.0273758 -6.26962e-44)
(-0.00388344 -0.0274364 -3.15699e-44)
(-0.00389191 -0.0274976 -3.20211e-44)
(-0.0039005 -0.0275589 -6.41397e-44)
(-0.00390922 -0.0276198 2.44419e-46)
(-0.00391804 -0.0276797 -2.77277e-46)
(-0.00392688 -0.0277384 -6.42628e-44)
(-0.00393563 -0.0277958 -3.15052e-44)
(-0.00394421 -0.0278525 -3.1395e-44)
(-0.00395258 -0.0279091 -3.09139e-44)
(-0.00396074 -0.0279665 0)
(-0.00396878 -0.0280255 -3.01513e-44)
(-0.00397683 -0.0280865 2.09994e-46)
(-0.00398502 -0.0281497 -1.88516e-46)
(-0.00399346 -0.0282146 -3.02436e-44)
(-0.00400222 -0.0282808 1.79635e-46)
(-0.0040113 -0.0283476 0)
(-0.00402063 -0.0284144 -3.12451e-44)
(-0.00403013 -0.028481 -3.1332e-44)
(-0.0040397 -0.0285473 -3.17824e-44)
(-0.00404926 -0.0286133 -3.19701e-44)
(-0.00405877 -0.0286792 3.2347e-44)
(-0.00406822 -0.028745 6.44703e-44)
(-0.00407762 -0.0288109 6.46576e-44)
(-0.004087 -0.0288766 3.24007e-44)
(-0.00409637 -0.0289423 -3.2454e-44)
(-0.00410572 -0.029008 -3.24965e-44)
(-0.00411506 -0.0290737 0)
(-0.00412437 -0.0291395 0)
(-0.00413369 -0.0292055 0)
(-0.00414302 -0.0292716 -2.32609e-46)
(-0.00415243 -0.0293378 0)
(-0.00416192 -0.0294037 -3.23822e-44)
(-0.00417148 -0.0294694 -3.25197e-44)
(-0.00418102 -0.0295349 3.23435e-44)
(-0.00419045 -0.0296006 3.24258e-44)
(-0.00419971 -0.0296672 0)
(-0.00420881 -0.0297352 0)
(-0.00421787 -0.029805 -3.25481e-44)
(-0.00422707 -0.0298767 -3.30825e-44)
(-0.00423664 -0.02995 0)
(-0.00424671 -0.0300239 0)
(-0.00425725 -0.0300976 -3.50706e-44)
(-0.0042681 -0.0301701 -3.52563e-44)
(-0.00427896 -0.0302406 -3.57674e-44)
(-0.00428954 -0.030309 -3.58411e-44)
(-0.00429962 -0.0303752 0)
(-0.00430915 -0.0304398 0)
(-0.00431824 -0.0305031 0)
(-0.00432707 -0.0305656 0)
(-0.00433583 -0.0306276 -3.54313e-44)
(-0.00434463 -0.0306892 -3.5361e-44)
(-0.00435349 -0.0307506 0)
(-0.00436234 -0.0308117 0)
(-0.00437105 -0.0308724 -3.53367e-44)
(-0.00437956 -0.0309325 -3.54804e-44)
(-0.00438785 -0.0309914 -1.36623e-46)
(-0.00439592 -0.0310485 1.4293e-52)
(-0.0044038 -0.0311032 0)
(-0.0044115 -0.0311546 0)
(-0.00441894 -0.0312017 -3.69752e-44)
(-0.00442598 -0.0312438 -3.71065e-44)
(-0.00443245 -0.0312797 0)
(-0.00443813 -0.0313084 0)
(-0.0044428 -0.031328 -3.76254e-44)
(-0.00444624 -0.0313361 -3.79466e-44)
(-0.00444814 -0.0313292 -3.82653e-44)
(-0.00444835 -0.0313019 -3.86784e-44)
(-0.00444693 -0.0312463 -3.8667e-44)
(-0.00444676 -0.0311438 -4.0263e-44)
(-0.00446422 -0.0309326 -4.11132e-44)
(-0.00452555 -0.0304648 -3.85292e-44)
(-0.00461362 -0.0295343 -3.28194e-44)
(-0.00465186 -0.0280013 -1.61208e-44)
(-0.0045695 -0.0258954 0)
(-0.00422622 -0.0234468 1.17763e-45)
(-0.00435969 -0.0202963 -1.58611e-44)
(-0.00325614 -0.0172206 -7.70365e-45)
(-0.0040434 -0.0132952 0)
(-0.0012796 -0.010725 1.37487e-43)
(-0.00385219 -0.0071087 3.92418e-51)
(0.00207071 -0.00718739 -3.97325e-43)
(-0.0055402 -0.00382992 -3.87882e-43)
(0.00681254 -0.0075468 0)
(-0.00920899 -0.0039792 1.83633e-43)
(0.0107736 -0.0101305 -2.36361e-43)
(-0.0104283 -0.00943259 2.14607e-43)
(0.00826828 -0.0136046 -3.50837e-43)
(-0.0133325 -0.00859717 -4.19305e-44)
(0.00841964 -0.00892997 -3.82314e-43)
(-0.0238565 0.0109682 1.13426e-42)
(0.0230797 0.00695388 6.70533e-43)
(-0.00468067 -0.0110284 -4.0363e-44)
(0.0116347 -0.0290009 -4.77778e-43)
(-0.0108762 -0.0378979 2.18013e-43)
(0.00195932 -0.0438047 -1.96716e-43)
(-0.011519 -0.0463282 -5.48877e-43)
(-0.00159594 -0.049283 -3.45527e-43)
(-0.0130356 -0.047523 5.04984e-43)
(-0.00318394 -0.0454791 2.59422e-43)
(-0.0142123 -0.0374984 -3.64135e-43)
(-0.00140448 -0.0314912 -2.2469e-43)
(-0.0137698 -0.0199323 -3.42805e-43)
(0.00326354 -0.0146119 -1.62862e-43)
(-0.0126467 -0.00409502 -3.01783e-43)
(0.0093419 -0.00427381 -6.12321e-43)
(-0.0121923 0.00153195 -3.60845e-43)
(0.0137961 -0.00498029 -7.93021e-43)
(-0.0139944 -0.0030613 -6.61304e-43)
(0.0184988 -0.0166569 9.29837e-43)
(-0.0196509 -0.0168708 -5.57636e-43)
(0.0199863 -0.0317345 -6.17813e-43)
(-0.0231452 -0.0343401 2.25502e-43)
(0.0162841 -0.0466849 5.85853e-43)
(-0.0230025 -0.0508132 5.1779e-43)
(0.0105662 -0.0600728 6.24007e-43)
(-0.0222857 -0.0625543 -8.53475e-43)
(0.00439229 -0.0672654 -8.08926e-43)
(-0.0203964 -0.0671656 1.60749e-51)
(-0.000558119 -0.0680631 1.09787e-42)
(-0.0181381 -0.065352 6.88514e-43)
(-0.00312778 -0.063779 5.63467e-43)
(-0.015843 -0.0595207 9.05662e-43)
(-0.00391879 -0.0568317 -1.32251e-51)
(-0.0135241 -0.0519952 -1.35203e-43)
(-0.00506166 -0.0471723 2.82411e-43)
(-0.0104294 -0.0418956 2.49501e-43)
(-0.00349495 -0.0390066 -2.60131e-44)
(-0.00819059 -0.0359361 3.72849e-52)
(-0.00319185 -0.0339445 2.5116e-43)
(-0.00667321 -0.031344 1.41589e-43)
(-0.00353828 -0.0285398 1.12659e-43)
(-0.00522 -0.0252279 1.5097e-43)
(-0.00331774 -0.0215649 -1.84594e-52)
(-0.0032956 -0.018052 -7.45304e-44)
(-0.00287307 -0.0132759 2.50859e-44)
(-0.00364467 -0.00544723 1.69082e-44)
(-0.00122333 0.00387658 4.37609e-44)
(-0.00246893 0.0170372 1.76344e-44)
(0.000270993 0.033531 -2.10553e-43)
(0.00302811 0.0517691 -5.44635e-43)
(0.00186594 0.0769799 -4.8462e-43)
(0.00818291 0.104361 -7.25742e-43)
(0.0236783 0.121577 -5.76877e-43)
(-0.00644195 0.168028 -1.65924e-42)
(0.0567644 0.182781 -7.56521e-43)
(0.0599675 0.20053 1.36422e-42)
(0.0249075 0.456528 -5.55295e-42)
(0.209426 0.335512 -2.03847e-42)
(0.119417 0.419853 0)
(0.117863 0.465777 0)
(0.105286 0.422827 -1.05664e-50)
(0.0883202 0.325254 0)
(0.0611317 0.230829 0)
(0.0415861 0.162059 0)
(0.0280851 0.114068 0)
(0.0191829 0.080186 0)
(0.0133001 0.0553859 -4.72811e-44)
(0.00922556 0.0363063 0)
(0.00618969 0.0209397 0)
(0.00382224 0.00808627 0)
(0.00187417 -0.00303921 0)
(0.000329936 -0.0131126 0)
(-0.00106969 -0.0225405 -2.14684e-44)
(-0.0025664 -0.0312979 1.96645e-43)
(-0.00383133 -0.039565 2.29078e-43)
(-0.00463969 -0.0479485 -1.34833e-44)
(-0.0061884 -0.0559897 -2.08411e-44)
(-0.00706815 -0.0636823 2.5392e-43)
(-0.00809635 -0.0712115 2.86237e-43)
(-0.00910651 -0.0782753 0)
(-0.0103312 -0.0840961 3.28286e-45)
(-0.0115533 -0.0874926 0)
(-0.012874 -0.0868023 -1.84124e-43)
(-0.0142744 -0.0797777 -3.69082e-43)
(-0.0160092 -0.0633167 -1.68425e-43)
(-0.0175854 -0.0320717 7.42376e-44)
(-0.0213507 0.0319592 1.28263e-44)
(-0.0382521 0.139928 3.83261e-43)
(0.0033516 -0.0415632 3.01695e-46)
(0.0044356 -0.0656456 0)
(0.00492296 -0.0838301 4.18047e-46)
(0.00504689 -0.0961057 0)
(0.00494492 -0.103192 0)
(0.00466553 -0.105834 0)
(0.00426516 -0.104521 0)
(0.00383769 -0.099862 0)
(0.00345556 -0.0925714 0)
(0.00312189 -0.0833512 0)
(0.00286988 -0.0728532 0)
(0.00263028 -0.0615584 -5.17185e-47)
(0.00242337 -0.0498909 -5.03073e-49)
(0.00216455 -0.0380749 6.85727e-51)
(0.00185502 -0.0262478 3.44154e-48)
(0.00153717 -0.0147829 -4.05019e-49)
(0.000733558 -0.00313596 0)
(0.00042438 0.00735801 0)
(0.000185162 0.0171399 1.06578e-49)
(3.63105e-05 0.0264354 2.01419e-50)
(-5.63358e-05 0.0353602 -5.88696e-50)
(-0.000118239 0.0439312 2.48569e-50)
(-0.000161827 0.0521528 0)
(-0.000194064 0.0600335 -6.27702e-51)
(-0.000218206 0.0675871 0)
(-0.000236478 0.0748314 6.47938e-53)
(-0.000250152 0.0817851 8.64632e-53)
(-0.000260105 0.0884671 0)
(-0.000266963 0.0948948 -1.46646e-53)
(-0.000271199 0.101084 -1.60318e-53)
(-0.000273228 0.107047 0)
(-0.00027338 0.112795 0)
(-0.00027195 0.118339 0)
(-0.000269192 0.123683 0)
(-0.000265298 0.128833 0)
(-0.000260448 0.133793 0)
(-0.000254771 0.138565 0)
(-0.000248366 0.143149 0)
(-0.000241327 0.147545 0)
(-0.000233703 0.151752 0)
(-0.00022555 0.155768 0)
(-0.000216904 0.159592 0)
(-0.000207789 0.163221 0)
(-0.000198244 0.166653 0)
(-0.000188277 0.169885 0)
(-0.000177918 0.172914 0)
(-0.00016719 0.17574 0)
(-0.00015611 0.178358 0)
(-0.0001447 0.180767 0)
(-0.000132993 0.182966 0)
(-0.000121006 0.184952 0)
(-0.000108771 0.186723 0)
(-9.63136e-05 0.188279 0)
(-8.3661e-05 0.189618 0)
(-7.08502e-05 0.190739 0)
(-5.78991e-05 0.191642 0)
(-4.48435e-05 0.192325 0)
(-3.17102e-05 0.192789 0)
(-1.85207e-05 0.193032 0)
(-5.30156e-06 0.193055 0)
(7.93128e-06 0.192858 0)
(2.11599e-05 0.19244 0)
(3.43796e-05 0.191803 0)
(4.75834e-05 0.190945 0)
(6.07714e-05 0.189868 0)
(7.39641e-05 0.188572 0)
(8.71665e-05 0.187057 0)
(0.000100407 0.185326 0)
(0.000113717 0.183378 0)
(0.000127124 0.181214 0)
(0.000140666 0.178836 0)
(0.000154372 0.176244 0)
(0.000168265 0.17344 0)
(0.000182353 0.170425 0)
(0.000196624 0.1672 0)
(0.000211032 0.163768 0)
(0.000225489 0.160128 0)
(0.000239864 0.156283 0)
(0.000253959 0.152235 0)
(0.000267503 0.147984 0)
(0.000280165 0.143533 0)
(0.000291528 0.138884 0)
(0.000301109 0.134038 0)
(0.00030838 0.128997 0)
(0.000312781 0.123762 0)
(0.000313774 0.118334 0)
(0.000310888 0.112714 0)
(0.000303774 0.106898 0)
(0.000292277 0.100884 0)
(0.000276459 0.0946647 0)
(0.000256614 0.0882295 0)
(0.000233211 0.0815639 0)
(0.000206748 0.0746485 0)
(0.000177462 0.0674599 0)
(0.000144983 0.0599715 0)
(0.000107427 0.0521564 0)
(6.13123e-05 0.0439905 0)
(-3.53838e-06 0.0354554 0)
(-9.93534e-05 0.0265344 0)
(-0.000266615 0.017174 0)
(-0.000508288 0.00721373 -2.12806e-51)
(-0.000864738 -0.0036217 -2.21302e-51)
(-0.0015987 -0.0153818 -7.92909e-51)
(-0.00201443 -0.0270134 1.59133e-50)
(-0.00232604 -0.0388718 6.59328e-50)
(-0.0026516 -0.0508351 3.22406e-48)
(-0.00287919 -0.0625919 0)
(-0.00315498 -0.0740012 5.18624e-47)
(-0.00340062 -0.0846128 -1.02772e-46)
(-0.0037052 -0.09395 -1.38554e-47)
(-0.00403397 -0.101331 -1.56109e-47)
(-0.00440721 -0.105996 -1.6824e-45)
(-0.00476111 -0.107153 -4.27104e-47)
(-0.00499764 -0.10417 0)
(-0.00507169 -0.0968137 8.01411e-46)
(-0.00496123 -0.0843056 0)
(-0.00447156 -0.0659488 0)
(-0.00337218 -0.041728 0)
(-0.151612 0.0631962 0)
(-0.194992 0.0501801 -1.91607e-44)
(-0.238257 0.064576 1.83114e-44)
(-0.278465 0.0903305 1.35999e-45)
(-0.312824 0.118159 0)
(-0.339884 0.143156 4.31528e-45)
(-0.36043 0.164398 -9.45343e-45)
(-0.378311 0.180025 0)
(-0.390271 0.174215 1.14614e-44)
(-0.389003 0.160256 1.57947e-44)
(-0.377326 0.151821 0)
(-0.359114 0.150733 -1.87038e-45)
(-0.336514 0.160907 -3.15427e-45)
(-0.315681 0.184236 2.05319e-45)
(-0.302577 0.212136 1.3676e-45)
(-0.292795 0.22752 -1.95648e-45)
(-0.278852 0.241138 1.0493e-46)
(-0.264472 0.272743 0)
(-0.258777 0.307944 2.17308e-46)
(-0.261183 0.320091 -5.15775e-47)
(-0.255534 0.298498 -4.2843e-47)
(-0.234062 0.272003 2.63949e-47)
(-0.204751 0.250333 1.36738e-47)
(-0.172382 0.238753 -2.13371e-45)
(-0.139694 0.237986 -2.2506e-46)
(-0.110637 0.239322 3.39574e-44)
(-0.0852581 0.234355 0)
(-0.0606814 0.222232 0)
(-0.0355596 0.202121 2.06052e-44)
(-0.00849657 0.168687 8.62679e-44)
(0.0233563 0.116142 -7.23191e-44)
(0.0652918 0.0388191 -1.19431e-43)
(0.12647 -0.0697722 0)
(0.229747 -0.230063 -8.66283e-43)
(0.412199 -0.478862 -1.47395e-42)
(0.845873 -0.86726 0)
(1.89659 -1.17582 -1.34574e-42)
(4.22048 -0.809749 5.52816e-42)
(-0.00395066 -0.0441388 -5.85051e-45)
(-0.00462487 -0.0454159 -3.93099e-45)
(-0.00520543 -0.0468975 -2.60325e-45)
(-0.00568581 -0.0487327 -5.81002e-45)
(-0.00614596 -0.0506261 2.52918e-44)
(-0.00651036 -0.0522158 6.09365e-45)
(-0.00679802 -0.0535119 1.79355e-46)
(-0.00704585 -0.0545694 2.35622e-44)
(-0.00727269 -0.0554347 2.46498e-44)
(-0.00747942 -0.0561357 2.53837e-44)
(-0.00765806 -0.0566967 2.98653e-44)
(-0.00780169 -0.0571454 -1.73988e-48)
(-0.00790742 -0.0575139 1.44321e-45)
(-0.007981 -0.0578355 2.91186e-44)
(-0.00803297 -0.0581367 0)
(-0.00807508 -0.0584327 -2.64438e-44)
(-0.00811599 -0.0587273 -2.74482e-44)
(-0.00816029 -0.0590175 2.83663e-44)
(-0.00820885 -0.0592967 2.71897e-44)
(-0.00826005 -0.0595588 0)
(-0.00831115 -0.0597995 -8.77009e-46)
(-0.00835944 -0.0600178 -1.63448e-45)
(-0.008403 -0.0602154 7.6237e-46)
(-0.00844076 -0.0603962 2.61383e-44)
(-0.00847269 -0.0605653 2.5874e-44)
(-0.0084995 -0.060728 -6.61901e-46)
(-0.00852242 -0.060889 -6.52539e-46)
(-0.00854288 -0.0610522 -6.52118e-46)
(-0.00856223 -0.06122 0)
(-0.00858164 -0.0613937 6.66352e-46)
(-0.00860194 -0.0615734 0)
(-0.00862364 -0.0617585 1.36658e-45)
(-0.00864698 -0.0619477 6.87826e-46)
(-0.00867189 -0.0621396 2.48432e-44)
(-0.00869819 -0.0623325 -6.57561e-52)
(-0.00872554 -0.0625248 -2.44598e-44)
(-0.00875357 -0.0627154 -2.46874e-44)
(-0.00878193 -0.0629031 -2.55978e-44)
(-0.00881027 -0.0630872 0)
(-0.00883834 -0.0632671 0)
(-0.00886591 -0.0634425 0)
(-0.00889287 -0.0636134 -2.71136e-44)
(-0.00891915 -0.0637797 -2.76325e-44)
(-0.00894477 -0.0639416 -4.34512e-46)
(-0.00896978 -0.0640992 -2.88208e-44)
(-0.00899428 -0.0642529 -2.94625e-44)
(-0.00901834 -0.0644029 -4.03472e-46)
(-0.00904205 -0.0645495 -3.07234e-44)
(-0.00906545 -0.064693 -3.12834e-44)
(-0.00908853 -0.0648337 0)
(-0.00911124 -0.064972 -3.21247e-44)
(-0.0091335 -0.0651083 -5.27085e-46)
(-0.00915521 -0.0652427 3.25034e-44)
(-0.00917629 -0.0653755 -3.25329e-44)
(-0.00919666 -0.0655071 -3.30439e-44)
(-0.00921632 -0.0656375 -3.24109e-44)
(-0.0092353 -0.0657668 -6.46741e-44)
(-0.00925369 -0.0658952 -3.2788e-44)
(-0.00927165 -0.0660226 -3.23401e-44)
(-0.00928937 -0.0661492 -3.24543e-44)
(-0.00930702 -0.066275 0)
(-0.00932479 -0.0664001 -3.28743e-44)
(-0.00934276 -0.0665246 -3.35726e-44)
(-0.00936099 -0.0666488 0)
(-0.00937944 -0.066773 -3.34756e-44)
(-0.00939799 -0.0668972 -3.40796e-44)
(-0.00941651 -0.0670218 0)
(-0.00943486 -0.0671469 0)
(-0.00945293 -0.0672725 0)
(-0.00947066 -0.0673985 -3.27341e-44)
(-0.00948806 -0.0675249 -6.4908e-44)
(-0.0095052 -0.0676516 -3.22237e-44)
(-0.00952219 -0.0677783 -3.20726e-44)
(-0.00953915 -0.0679051 -3.20131e-44)
(-0.00955619 -0.068032 -4.65116e-46)
(-0.00957336 -0.0681592 -3.2131e-44)
(-0.00959066 -0.0682867 -6.4984e-44)
(-0.00960803 -0.0684151 -3.24041e-44)
(-0.00962538 -0.0685444 -3.25446e-44)
(-0.00964261 -0.0686751 -4.61738e-46)
(-0.00965969 -0.0688073 3.283e-44)
(-0.00967665 -0.0689409 -3.30143e-44)
(-0.00969363 -0.069076 -3.36672e-44)
(-0.00971083 -0.0692122 0)
(-0.00972851 -0.0693493 0)
(-0.00974687 -0.069487 0)
(-0.00976605 -0.069625 -3.50249e-44)
(-0.00978601 -0.0697632 -3.55407e-44)
(-0.00980662 -0.0699013 0)
(-0.00982758 -0.0700396 -3.63656e-44)
(-0.00984855 -0.0701781 -3.71693e-44)
(-0.0098692 -0.0703169 0)
(-0.00988927 -0.0704563 0)
(-0.00990868 -0.0705964 0)
(-0.00992751 -0.0707372 0)
(-0.00994603 -0.0708788 0)
(-0.0099646 -0.0710212 0)
(-0.00998357 -0.0711645 0)
(-0.0100032 -0.0713085 -3.83882e-44)
(-0.0100236 -0.0714533 -3.81038e-44)
(-0.0100446 -0.0715986 0)
(-0.0100659 -0.0717445 -3.83948e-44)
(-0.0100871 -0.0718907 -3.84741e-44)
(-0.0101078 -0.0720371 0)
(-0.010128 -0.0721837 3.82072e-44)
(-0.0101477 -0.0723304 3.89039e-44)
(-0.0101671 -0.0724773 -3.92038e-44)
(-0.0101868 -0.0726246 -4.61588e-46)
(-0.0102071 -0.0727725 3.98827e-44)
(-0.0102283 -0.0729214 -4.01055e-44)
(-0.0102504 -0.0730716 -4.07951e-44)
(-0.0102731 -0.0732234 0)
(-0.010296 -0.0733766 0)
(-0.0103184 -0.0735313 0)
(-0.0103401 -0.0736872 -3.83281e-44)
(-0.0103608 -0.0738438 -3.77592e-44)
(-0.0103807 -0.0740008 0)
(-0.0104003 -0.0741577 -3.71908e-44)
(-0.0104201 -0.0743144 -3.76882e-44)
(-0.0104405 -0.0744709 0)
(-0.0104617 -0.0746272 0)
(-0.0104837 -0.0747836 -3.83962e-44)
(-0.0105062 -0.0749403 -3.88239e-44)
(-0.0105288 -0.0750976 -3.96838e-44)
(-0.0105514 -0.0752556 -3.94815e-44)
(-0.0105737 -0.0754143 0)
(-0.0105959 -0.0755736 -4.04187e-44)
(-0.0106182 -0.0757335 -4.0033e-44)
(-0.0106407 -0.0758939 4.01451e-44)
(-0.0106634 -0.0760546 8.04554e-44)
(-0.0106863 -0.0762155 8.05729e-44)
(-0.0107091 -0.0763766 4.03349e-44)
(-0.0107317 -0.0765379 -4.03909e-44)
(-0.010754 -0.0766992 -4.04666e-44)