/*--------------------------------*- C++ -*----------------------------------*\
| =========                 |                                                 |
| \\      /  F ield         | OpenFOAM: The Open Source CFD Toolbox           |
|  \\    /   O peration     | Version:  2.2.1                                 |
|   \\  /    A nd           | Web:      www.OpenFOAM.org                      |
|    \\/     M anipulation  |                                                 |
\*---------------------------------------------------------------------------*/
FoamFile
{
    version     2.0;
    format      ascii;
    class       volScalarField;
    location    "4e-05";
    object      alpha1;
}
// * * * * * * * * * * * * * * * * * * * * * * * * * * * * * * * * * * * * * //

dimensions      [0 0 0 0 0 0 0];

internalField   nonuniform List<scalar> 
22464
(
0.97713
0.996215
0.997677
0.999782
0.999936
0.999959
0.999017
0.972828
0.845894
0.410828
0.116979
0.0579711
0.0200161
0.0149635
0.00644163
0.00366855
0.002115
0.00141934
0.00129554
0.00129718
0.00101359
0.000889854
0.000826551
0.000819719
0.00083
0.000871978
0.000893009
0.00090856
0.000913227
0.000911897
0.000897584
0.000878192
0.000858614
0.00084304
0.000838782
0.000842471
0.000848222
0.000848655
0.000846791
0.00084775
0.000861042
0.000872425
0.000875533
0.000870842
0.000862846
0.000856862
0.000849721
0.000845544
0.000837229
0.00083503
0.000823702
0.000823432
0.000810779
0.000823849
0.000810606
0.000826715
0.000815705
0.000844932
0.000862061
0.000999474
0.00123588
0.00159859
0.00205117
0.00267044
0.00346888
0.00393982
0.0036234
0.00306779
0.00179999
0.00143542
0.000972825
0.000858455
0.000724704
0.000700396
0.000674821
0.000714772
0.000719935
0.000786266
0.000765657
0.000883521
0.00101929
0.0012184
0.00138093
0.00162496
0.00215859
0.00325888
0.00452501
0.00469186
0.00392798
0.00200779
0.00108104
0.0006429
0.000390995
0.000304389
0.000238318
0.000211354
0.000185092
0.000154393
0.00011954
9.17711e-05
6.67227e-05
4.56905e-05
2.75376e-05
1.45754e-05
6.46735e-06
2.29037e-06
6.18706e-07
1.18999e-07
1.48292e-08
1.05922e-09
3.80709e-11
4.9605e-13
8.41843e-16
1.2561e-19
5.74009e-24
2.50292e-28
1.05027e-32
4.2073e-37
1.59188e-41
5.65065e-46
1.88188e-50
5.91454e-55
1.78666e-59
5.43371e-64
1.81594e-68
7.36106e-73
3.64805e-77
2.01307e-81
1.1295e-85
6.15396e-90
3.20642e-94
1.58125e-98
7.17646e-103
2.97895e-107
1.15184e-111
4.18567e-116
1.43616e-120
4.66601e-125
1.43822e-129
4.2091e-134
1.17014e-138
3.08961e-143
7.73429e-148
1.83584e-152
4.23912e-157
9.62024e-162
2.159e-166
4.82118e-171
1.079e-175
-4.49767e-199
-9.59581e-180
-4.44918e-180
-1.34181e-180
-3.23753e-181
-6.63013e-182
-1.18451e-182
-1.88008e-183
-2.68769e-184
-3.49972e-185
-4.18796e-186
-4.64126e-187
-4.79584e-188
-4.64828e-189
-4.24936e-190
-3.68083e-191
-3.03467e-192
-2.39315e-193
-1.81365e-194
-1.32746e-195
-9.43288e-197
-6.54195e-198
-4.44994e-199
-2.98136e-200
-1.97227e-201
-1.2899e-202
-8.33998e-204
-5.32544e-205
-3.35184e-206
-2.07521e-207
-1.26139e-208
-7.5156e-210
-4.38405e-211
-2.50132e-212
-1.39507e-213
-7.60389e-215
-4.04985e-216
-2.1078e-217
-1.07227e-218
-5.3336e-220
-2.5954e-221
-1.23621e-222
-5.76663e-224
-2.63615e-225
-1.18182e-226
-5.19925e-228
-2.24615e-229
-9.53509e-231
-3.97978e-232
-1.63403e-233
-6.60242e-235
-2.6261e-236
-1.02842e-237
-3.96591e-239
-1.50624e-240
-5.63516e-242
-2.0772e-243
-7.5462e-245
-2.70267e-246
-9.54474e-248
-3.32433e-249
-1.14194e-250
-3.86857e-252
-1.29239e-253
-4.257e-255
-1.38232e-256
-4.42485e-258
-1.39619e-259
-4.34278e-261
-1.33174e-262
-4.02699e-264
-1.20092e-265
-3.5327e-267
-1.02516e-268
-2.93491e-270
-8.28881e-272
-2.30927e-273
-6.34636e-275
-1.72057e-276
-4.60155e-278
-1.21408e-279
-3.16054e-281
-8.11924e-283
-2.05877e-284
-5.15386e-286
-1.27401e-287
-3.11056e-289
-7.50167e-291
-1.78721e-292
-4.20664e-294
-9.78317e-296
-2.24847e-297
-5.10749e-299
-1.14686e-300
-2.54621e-302
-5.59053e-304
-1.21424e-305
-2.60949e-307
-5.53307e-309
-1.43755e-310
0
0
0
0
0
0
0
0
0
0
0
0
0
0
0
0
0
0
0
0
0
0
0
0
0
0
0
0
0
0
0
0
0
0
0
0
0
0
0
0
0
0
0
0
0
0
0
0
0
0
0
0
0
0
0
0
0
0
0
0
0
0
0
0
0
0
0
0
0
0
-6.15217e-310
-3.08079e-308
-1.49148e-306
-7.14915e-305
-3.39114e-303
-1.59168e-301
-7.39201e-300
-3.39648e-298
-1.54383e-296
-6.94095e-295
-3.08625e-293
-1.35685e-291
-5.89685e-290
-2.53278e-288
-1.07492e-286
-4.50655e-285
-1.86609e-283
-7.63105e-282
-3.08133e-280
-1.22846e-278
-4.83531e-277
-1.87887e-275
-7.20676e-274
-2.7284e-272
-1.01943e-270
-3.75869e-269
-1.36742e-267
-4.90813e-266
-1.73801e-264
-6.0711e-263
-2.09194e-261
-7.11065e-260
-2.38419e-258
-7.88614e-257
-2.57318e-255
-8.28187e-254
-2.62915e-252
-8.23192e-251
-2.54189e-249
-7.74005e-248
-2.32399e-246
-6.87998e-245
-2.00816e-243
-5.77933e-242
-1.64e-240
-4.58908e-239
-1.2662e-237
-3.44477e-236
-9.23945e-235
-2.44266e-233
-6.36325e-232
-1.6328e-230
-4.12499e-229
-1.02555e-227
-2.50807e-226
-6.03097e-225
-1.42535e-223
-3.30955e-222
-7.54636e-221
-1.6891e-219
-3.7091e-218
-7.98609e-217
-1.68485e-215
-3.48079e-214
-7.03797e-213
-1.39217e-211
-2.69351e-210
-5.09734e-209
-9.43867e-208
-1.71121e-206
-3.04053e-205
-5.30201e-204
-9.08936e-203
-1.53509e-201
-2.55982e-200
-4.22323e-199
-6.90399e-198
-1.11896e-196
-1.79648e-195
-2.85095e-194
-4.4573e-193
-6.8353e-192
-1.02319e-190
-1.48778e-189
-2.09152e-188
-2.83014e-187
-3.67086e-186
-4.54567e-185
-5.35271e-184
-5.9685e-183
-6.2739e-182
-6.18661e-181
-5.69203e-180
-4.85719e-179
-3.81835e-178
-2.7432e-177
-1.7837e-176
-1.03692e-175
-5.30301e-175
-2.333e-174
-8.52967e-174
-2.41267e-173
-3.69518e-173
3.94741e-171
1.78426e-166
7.94455e-162
3.49709e-157
1.51279e-152
6.36881e-148
2.54358e-143
9.63369e-139
3.46598e-134
1.18451e-129
3.84277e-125
1.1824e-120
3.44442e-116
9.47475e-112
2.45053e-107
5.91211e-103
1.30757e-98
2.6538e-94
5.09048e-90
9.35256e-86
1.67431e-81
3.06694e-77
6.31001e-73
1.59366e-68
4.85324e-64
1.61075e-59
5.35561e-55
1.70802e-50
5.13698e-46
1.44871e-41
3.83049e-37
9.55897e-33
2.27644e-28
5.22052e-24
1.14445e-19
7.852e-16
4.72778e-13
3.68077e-11
1.03189e-09
1.4535e-08
1.17175e-07
6.11346e-07
2.26912e-06
6.41939e-06
1.44884e-05
2.74162e-05
4.55592e-05
6.6603e-05
9.15935e-05
0.000119213
0.000154041
0.000185014
0.000211528
0.000238168
0.00030296
0.000388263
0.00063482
0.00106358
0.00197673
0.00386992
0.0046891
0.00454126
0.00328664
0.00218035
0.00163694
0.00138739
0.00122166
0.00101841
0.000880663
0.000764393
0.00078762
0.000722628
0.000715741
0.000675707
0.000701189
0.000727352
0.00086766
0.000985448
0.00147084
0.00183603
0.00312392
0.00364868
0.00388865
0.00337543
0.00259903
0.0019986
0.00155176
0.00119825
0.000972634
0.000839571
0.000825723
0.000807001
0.000827242
0.000814235
0.000826842
0.000822076
0.000844463
0.000847667
0.000861419
0.000851816
0.00085457
0.000847355
0.00084443
0.00083493
0.000833271
0.000829176
0.000834607
0.00084179
0.000853406
0.000852436
0.000847906
0.000840613
0.000832759
0.00082417
0.000815551
0.000807414
0.000803787
0.000803385
0.000812417
0.000832196
0.000860321
0.000896469
0.000935091
0.000973156
0.00100667
0.00103526
0.00105471
0.00107845
0.00109842
0.00115542
0.00127645
0.00157853
0.00158271
0.00155686
0.002409
0.00312951
0.00835805
0.00933935
0.0341186
0.0294136
0.146628
0.130028
0.557506
0.592902
0.827005
0.695661
0.760479
0.531708
0
0
0
0
0
0
0
0
0
0
0
0
0
0
0
0
0
0
0
0
0
0
0
0
0
0
0
0
0
0
0
0
0
0
0
0
0
0
0
0
0
0
0
0
0
0
0
0
0
0
0
0
0
0
0
0
0
0
0
0
0
0
0
0
0
0
0
0
0
0
0
0
0
0
0
0
0
0
0
0
0
0
0
0
0
0
0
0
0
0
0
0
0
0
0
0
0
0
0
0
0
0
0
0
0
0
0
0
0
0
0
0
0
0
0
0
0
0
0.0160143
4.33289e-05
1.70052e-07
1.85605e-10
4.273e-12
2.57146e-12
1.98252e-13
1.82294e-14
2.12353e-15
3.67823e-16
9.61105e-17
3.62389e-17
1.80513e-17
1.03514e-17
6.6773e-18
5.79363e-18
8.22094e-18
1.21281e-17
1.47159e-17
1.57042e-17
1.40649e-17
1.03951e-17
1.30341e-17
2.66884e-17
7.35966e-17
1.81959e-16
6.67433e-16
4.02679e-15
3.17972e-14
2.6725e-13
3.82643e-12
5.192e-11
4.69143e-11
8.87065e-11
2.4811e-07
0.00013827
0.0516404
0.644783
0
0
0
0
0
0
0
0
0
0
0
0
0
0
0
0
0
0
0
0
0
0
0
0
0
0
0
0
0
0
0
-2.61996e-310
-1.30227e-308
-6.42551e-307
-3.13704e-305
-1.51492e-303
-7.23524e-302
-3.41714e-300
-1.59583e-298
-7.36884e-297
-3.36414e-295
-1.51837e-293
-6.77434e-292
-2.98745e-290
-1.30199e-288
-5.60683e-287
-2.38539e-285
-1.00244e-283
-4.16045e-282
-1.70508e-280
-6.89931e-279
-2.75599e-277
-1.08672e-275
-4.22951e-274
-1.62464e-272
-6.1585e-271
-2.30356e-269
-8.50139e-268
-3.09527e-266
-1.11169e-264
-3.93833e-263
-1.3761e-261
-4.74178e-260
-1.61124e-258
-5.39853e-257
-1.78353e-255
-5.80987e-254
-1.86599e-252
-5.90834e-251
-1.8442e-249
-5.67426e-248
-1.72085e-246
-5.14386e-245
-1.51539e-243
-4.39972e-242
-1.25887e-240
-3.54972e-239
-9.86465e-238
-2.7017e-236
-7.29222e-235
-1.93968e-233
-5.08403e-232
-1.3129e-230
-3.33982e-229
-8.36703e-228
-2.06368e-226
-5.00947e-225
-1.19638e-223
-2.81007e-222
-6.48867e-221
-1.47232e-219
-3.28128e-218
-7.17893e-217
-1.54098e-215
-3.24332e-214
-6.68858e-213
-1.35066e-211
-2.66903e-210
-5.15838e-209
-9.7459e-208
-1.79941e-206
-3.24602e-205
-5.72119e-204
-9.85449e-203
-1.65966e-201
-2.73544e-200
-4.41814e-199
-7.00482e-198
-1.09242e-196
-1.67948e-195
-2.5504e-194
-3.8307e-193
-5.69259e-192
-8.36033e-191
-1.21032e-189
-1.72059e-188
-2.39054e-187
-3.22916e-186
-4.21822e-185
-5.30054e-184
-6.37439e-183
-7.30005e-182
-7.92218e-181
-8.10623e-180
-7.77952e-179
-6.96193e-178
-5.77138e-177
-4.39784e-176
-3.05147e-175
-1.90492e-174
-1.05285e-173
-5.03515e-173
-2.01064e-172
-6.30875e-172
-1.37955e-171
-1.50487e-171
3.20963e-168
1.09601e-163
3.68191e-159
1.21383e-154
3.91265e-150
1.23002e-145
3.76052e-141
1.11459e-136
3.19606e-132
8.84343e-128
2.35571e-123
6.02954e-119
1.47999e-114
3.47574e-110
7.79071e-106
1.66332e-101
3.37302e-97
6.47641e-93
1.17352e-88
1.99966e-84
3.18961e-80
4.73908e-76
6.51948e-72
8.24135e-68
9.47991e-64
9.79823e-60
8.93224e-56
7.02061e-52
4.61005e-48
2.42923e-44
1.02728e-40
3.98378e-37
3.17132e-33
3.66408e-29
2.03502e-25
2.21769e-22
1.05929e-19
1.85168e-17
6.3459e-16
7.63222e-15
3.88034e-14
1.36416e-13
4.61087e-13
1.58265e-12
4.90246e-12
1.09331e-11
3.15799e-11
2.84433e-10
3.20016e-09
2.75893e-08
1.87535e-07
8.38263e-07
4.3388e-06
1.07827e-05
2.50519e-05
3.93991e-05
6.66928e-05
0.000121991
0.0001787
0.000578273
0.000767783
0.0013692
0.00131798
0.001244
0.00112739
0.000986409
0.000780875
0.000569588
0.00040549
0.000299711
0.000209551
0.000128761
8.12639e-05
6.62732e-05
7.06209e-05
7.9227e-05
0.000121091
0.000152456
0.000261951
0.000344234
0.000613166
0.000860199
0.0012314
0.00129957
0.00122694
0.00105416
0.000852918
0.000678942
0.000554722
0.000451063
0.000372179
0.000297513
0.000231795
0.00017901
0.000140701
0.000110963
9.00457e-05
7.14974e-05
6.55393e-05
6.24133e-05
6.07985e-05
5.8901e-05
5.71133e-05
5.42991e-05
5.35981e-05
5.28627e-05
4.97954e-05
4.25544e-05
3.28607e-05
2.47221e-05
1.94459e-05
1.56637e-05
1.27051e-05
1.1156e-05
1.10475e-05
1.15011e-05
1.5067e-05
1.79802e-05
1.82973e-05
1.79967e-05
1.69959e-05
1.54801e-05
1.40316e-05
1.32174e-05
1.29563e-05
1.2996e-05
1.33948e-05
1.54058e-05
2.12537e-05
3.88173e-05
5.70497e-05
7.66527e-05
0.000283196
0.000382622
0.000434829
0.000345937
0.00124439
0.00084722
0.00729422
0.00301014
0.0236592
0.0067924
0.0559471
0.0356184
0.135025
0.044842
0.054263
0.78457
0.816705
0.87028
0.855907
0.799196
0.621456
0.398453
0.15585
0.0279757
0.0062803
0.00649378
0.00148209
0.00211203
0.000575219
0.000364926
0.000359034
0.000402424
0.000283977
0.000115324
7.74182e-05
5.69339e-05
3.53354e-05
2.32026e-05
1.67323e-05
1.57039e-05
1.66149e-05
1.74327e-05
1.68246e-05
1.62462e-05
1.7957e-05
2.09367e-05
2.39337e-05
2.62338e-05
2.73742e-05
2.68428e-05
2.91439e-05
3.00931e-05
3.0369e-05
2.93976e-05
2.74512e-05
3.13991e-05
3.96413e-05
4.15375e-05
4.39934e-05
4.45738e-05
4.44893e-05
4.44503e-05
4.49809e-05
4.87993e-05
5.77919e-05
7.42187e-05
9.7683e-05
0.000132671
0.000173413
0.000232973
0.000300482
0.000380632
0.00046592
0.000574037
0.000702752
0.000883173
0.00108624
0.00125286
0.00132333
0.00121933
0.000870405
0.000592214
0.000332469
0.000251809
0.000146577
0.000115094
7.46716e-05
6.64498e-05
6.32011e-05
7.97172e-05
0.000127769
0.000207846
0.000297824
0.000404807
0.000570039
0.000781799
0.000986217
0.00112582
0.00124112
0.00131366
0.00137833
0.000768957
0.00059331
0.000180994
0.000124016
6.73909e-05
3.97368e-05
2.53729e-05
1.09974e-05
4.50223e-06
8.68893e-07
1.95869e-07
2.9203e-08
3.45405e-09
3.09261e-10
3.28198e-11
1.09733e-11
4.96204e-12
1.6074e-12
4.5685e-13
1.28081e-13
3.48389e-14
6.96949e-15
6.41598e-16
1.87867e-17
1.11713e-19
2.49962e-22
2.34693e-25
4.24344e-29
3.64738e-33
4.61718e-37
1.23193e-40
2.97685e-44
5.68188e-48
8.65344e-52
1.09883e-55
1.20192e-59
1.15961e-63
1.00562e-67
7.9384e-72
5.76047e-76
3.8716e-80
2.42451e-84
1.42155e-88
7.83944e-93
4.08045e-97
2.01114e-101
9.41599e-106
4.19952e-110
1.78776e-114
7.28227e-119
2.84493e-123
1.06801e-127
3.86029e-132
1.34652e-136
4.54438e-141
1.48696e-145
4.73189e-150
1.4686e-154
4.45667e-159
1.32729e-163
3.8918e-168
1.12733e-172
2.73999e-177
-4.3221e-178
-3.0937e-178
-1.13102e-178
-3.05359e-179
-6.7415e-180
-1.27282e-180
-2.11106e-181
-3.13316e-182
-4.21845e-183
-5.20767e-184
-5.94625e-185
-6.32671e-186
-6.31403e-187
-5.94679e-188
-5.31687e-189
-4.53889e-190
-3.72133e-191
-2.94737e-192
-2.26794e-193
-1.7044e-194
-1.25661e-195
-9.11925e-197
-6.52633e-198
-4.60795e-199
-3.20715e-200
-2.19678e-201
-1.47784e-202
-9.74483e-204
-6.28772e-205
-3.96479e-206
-2.44096e-207
-1.46658e-208
-8.5975e-210
-4.91785e-211
-2.74542e-212
-1.4963e-213
-7.9652e-215
-4.14353e-216
-2.10761e-217
-1.04887e-218
-5.11037e-220
-2.43928e-221
-1.14143e-222
-5.23952e-224
-2.36073e-225
-1.04467e-226
-4.54288e-228
-1.94234e-229
-8.16862e-231
-3.3803e-232
-1.37676e-233
-5.52019e-235
-2.17922e-236
-8.47122e-238
-3.24295e-239
-1.22277e-240
-4.54176e-242
-1.66207e-243
-5.99357e-245
-2.12996e-246
-7.45976e-248
-2.57482e-249
-8.75827e-251
-2.93574e-252
-9.6964e-254
-3.15567e-255
-1.01195e-256
-3.19768e-258
-9.95812e-260
-3.05669e-261
-9.2494e-263
-2.75938e-264
-8.11706e-266
-2.35452e-267
-6.73509e-269
-1.89994e-270
-5.28561e-272
-1.45023e-273
-3.92449e-275
-1.04755e-276
-2.75848e-278
-7.1668e-280
-1.83746e-281
-4.64962e-283
-1.16143e-284
-2.86425e-286
-6.97473e-288
-1.67718e-289
-3.983e-291
-9.34258e-293
-2.16476e-294
-4.95559e-296
-1.12096e-297
-2.50597e-299
-5.5377e-301
-1.20988e-302
-2.61399e-304
-5.58606e-306
-1.18089e-307
-2.45098e-309
-6.70767e-311
0
0
0
0
0
0
0
0
0
0
0
0
0
0
0
0
0
0
0
0
0
0
0
0
0
0
0
0
0
0
0
0
0
0
0
0
0
0
0
0
0
0
0
0
0
0
0
0
0
0
0
0
0
0
0
0
0
0
0
0
0
0
0
0
0
0
0
0
0
0
0
0
0
0
0
0
0
0
0
0
0
0
0
0
0
0
0
0
0
0
0
0
0
0
0
0
0
0
0
0
0
0
0
0
0
0
0
0
0
0
0
0
0
0
0
0
0
0
0
0
0
0
0
0
0
0
0
0
0
0
0
0
0
0
0
0
0
0
0
0
0
0
0
0
0
0
0
0
0
0.000105102
4.71378e-07
4.47477e-10
6.05919e-12
2.52478e-12
1.60238e-13
9.02425e-15
5.28542e-16
4.45338e-17
5.81369e-18
1.36606e-18
6.07078e-19
3.95309e-19
3.32096e-19
5.1652e-19
1.01028e-18
1.63637e-18
2.07142e-18
2.22404e-18
1.86244e-18
8.23498e-19
5.15529e-19
1.02645e-18
4.22692e-18
8.4293e-18
5.54604e-17
6.65975e-16
8.32317e-15
1.17028e-13
1.52857e-12
3.98245e-11
4.35901e-11
1.85788e-10
3.10644e-07
0.000190168
0.0818842
0
0
0
0
0
0
0
0
0
0
0
0
0
0
0
0
0
0
0
0
0
0
0
0
0
0
0
0
0
0
0
0
0
0
0
0
0
0
0
0
0
0
0
0
0
0
0
0
0
0
0
0
0
0
0
0
0
0
0
0
0
0
0
0
0
0
0
0
0
0
0
0
0
0
0
0
0
0
0
0
0
0
0
0
0
0
0
0
0
0
0
0
0
0
0
0
0
0
0
0
0
0
0
0
0
0
0
0
0
0
0
0
0
0
0
0
0.0811942
0.0959095
0.0583519
0.0389166
0.0160662
0.00777902
0.00266274
0.00072598
0.000170156
0.000165571
2.30187e-05
1.89563e-05
1.16667e-05
9.83818e-06
7.44148e-06
4.18649e-06
1.95584e-06
7.0154e-07
2.3125e-07
8.07169e-08
2.76585e-08
1.19622e-08
7.29372e-09
5.41403e-09
4.2146e-09
3.54224e-09
3.35043e-09
3.36862e-09
3.65338e-09
3.87671e-09
3.90477e-09
3.44509e-09
2.44399e-09
1.72771e-09
1.40827e-09
1.29384e-09
1.22537e-09
1.08757e-09
9.10929e-10
9.00221e-10
1.10272e-09
2.27361e-10
2.21366e-10
2.94312e-10
5.67791e-10
1.0302e-09
2.32157e-09
1.79168e-08
2.09527e-07
1.28918e-06
4.64494e-06
1.22063e-05
2.69046e-05
5.1718e-05
8.28244e-05
0.000105765
0.000111875
0.000107005
0.000103252
0.00010345
0.000104676
0.000103609
8.13615e-05
5.71029e-05
3.12024e-05
1.22988e-05
3.55452e-06
1.34165e-06
1.11985e-07
8.44783e-08
1.13576e-07
9.52694e-07
4.16526e-06
1.3541e-05
3.75515e-05
8.04335e-05
0.000124635
0.00014401
0.000145605
0.00014702
0.00015113
0.000148802
0.000119616
8.51879e-05
6.58939e-05
2.72022e-05
1.05515e-05
1.78391e-06
6.30552e-07
1.07384e-07
2.07458e-08
9.52918e-09
1.09825e-09
2.52119e-11
1.57488e-12
5.91405e-14
1.17132e-15
8.12295e-18
1.61062e-23
1.81944e-19
1.18985e-20
1.85272e-25
2.07129e-21
5.86286e-22
1.19327e-22
1.67493e-22
1.83287e-23
1.90261e-24
3.67105e-32
1.42071e-27
8.13378e-30
1.63262e-31
3.29047e-33
3.21499e-35
9.5509e-38
5.54856e-41
5.48582e-45
5.11241e-49
4.65025e-53
4.08743e-57
3.47922e-61
2.87947e-65
2.31871e-69
1.81567e-73
1.37971e-77
1.0142e-81
7.19675e-86
4.92128e-90
3.24034e-94
2.05399e-98
1.25352e-102
7.37093e-107
4.17669e-111
2.2827e-115
1.20438e-119
6.13448e-124
3.01916e-128
1.4362e-132
6.60923e-137
2.94169e-141
1.26724e-145
5.28772e-150
2.13748e-154
8.3784e-159
3.18692e-163
1.17666e-167
4.21748e-172
1.46711e-176
-1.59064e-179
-1.29786e-179
-6.57006e-180
-2.47887e-180
-7.69283e-181
-2.04531e-181
-4.77946e-182
-9.99263e-183
-1.89378e-183
-3.286e-184
-5.26177e-185
-7.82598e-186
-1.08703e-186
-1.41662e-187
-1.73901e-188
-2.01794e-189
-2.22033e-190
-2.32285e-191
-2.31632e-192
-2.20659e-193
-2.01224e-194
-1.7599e-195
-1.47878e-196
-1.19571e-197
-9.31779e-199
-7.00767e-200
-5.09316e-201
-3.58181e-202
-2.44034e-203
-1.61258e-204
-1.03463e-205
-6.45213e-207
-3.91487e-208
-2.31342e-209
-1.33267e-210
-7.49053e-212
-4.11144e-213
-2.2056e-214
-1.15731e-215
-5.94408e-217
-2.99046e-218
-1.47467e-219
-7.1323e-221
-3.38507e-222
-1.57731e-223
-7.2188e-225
-3.24623e-226
-1.43485e-227
-6.2355e-229
-2.66485e-230
-1.12019e-231
-4.63227e-233
-1.88459e-234
-7.54378e-236
-2.97124e-237
-1.15157e-238
-4.39224e-240
-1.64878e-241
-6.09196e-243
-2.21572e-244
-7.93345e-246
-2.79658e-247
-9.70574e-249
-3.31658e-250
-1.11592e-251
-3.69719e-253
-1.20626e-254
-3.876e-256
-1.22678e-257
-3.82517e-259
-1.17514e-260
-3.55742e-262
-1.06128e-263
-3.12057e-265
-9.04476e-267
-2.58442e-268
-7.28041e-270
-2.02213e-271
-5.5381e-273
-1.49575e-274
-3.98437e-276
-1.04692e-277
-2.71382e-279
-6.94093e-281
-1.75177e-282
-4.36332e-284
-1.07271e-285
-2.60333e-287
-6.2372e-289
-1.47542e-290
-3.44631e-292
-7.94985e-294
-1.81128e-295
-4.07657e-297
-9.06456e-299
-1.99161e-300
-4.32443e-302
-9.28079e-304
-1.96905e-305
-4.13064e-307
-8.57587e-309
-1.73584e-310
-8.13058e-312
0
0
0
0
0
0
0
0
0
0
0
0
0
0
0
0
0
0
0
0
0
0
0
0
0
0
0
0
0
0
0
0
0
0
0
0
0
0
0
0
0
0
0
0
0
0
0
0
0
0
0
0
0
0
0
0
-2.5707e-311
-8.63436e-310
-4.39742e-308
-2.19182e-306
-1.08037e-304
-5.26466e-303
-2.53586e-301
-1.2072e-299
-5.67931e-298
-2.64017e-296
-1.21273e-294
-5.50386e-293
-2.46785e-291
-1.09317e-289
-4.78339e-288
-2.0674e-286
-8.82484e-285
-3.71991e-283
-1.54828e-281
-6.36223e-280
-2.58083e-278
-1.03336e-276
-4.08357e-275
-1.59252e-273
-6.12832e-272
-2.32686e-270
-8.71613e-269
-3.22074e-267
-1.17386e-265
-4.21951e-264
-1.49571e-262
-5.22798e-261
-1.8017e-259
-6.12096e-258
-2.04972e-256
-6.76497e-255
-2.20039e-253
-7.05289e-252
-2.22751e-250
-6.93102e-249
-2.12448e-247
-6.41423e-246
-1.90735e-244
-5.58572e-243
-1.61085e-241
-4.57427e-240
-1.27895e-238
-3.52074e-237
-9.54215e-236
-2.54612e-234
-6.68831e-233
-1.72958e-231
-4.4028e-230
-1.10319e-228
-2.72062e-227
-6.60291e-226
-1.57682e-224
-3.70453e-223
-8.56052e-222
-1.94526e-220
-4.34547e-219
-9.53969e-218
-2.05728e-216
-4.35627e-215
-9.05271e-214
-1.84517e-212
-3.68636e-211
-7.21381e-210
-1.38173e-208
-2.58847e-207
-4.73898e-206
-8.47207e-205
-1.4777e-203
-2.51239e-202
-4.15996e-201
-6.70159e-200
-1.04936e-198
-1.59547e-197
-2.35291e-196
-3.36189e-195
-4.64855e-194
-6.21263e-193
-8.01489e-192
-9.96763e-191
-1.19323e-189
-1.37286e-188
-1.51553e-187
-1.60235e-186
-1.61939e-185
-1.56105e-184
-1.43193e-183
-1.24661e-182
-1.02701e-181
-7.98034e-181
-5.827e-180
-3.98086e-179
-2.53185e-178
-1.49022e-177
-8.05911e-177
-3.96909e-176
-1.76e-175
-6.91922e-175
-2.35804e-174
-6.72104e-174
-1.50992e-173
-2.44547e-173
3.1848e-172
9.70788e-168
2.63326e-163
6.93325e-159
1.77147e-154
4.38891e-150
1.05343e-145
2.44909e-141
5.5109e-137
1.19939e-132
2.52531e-128
5.13939e-124
1.01071e-119
1.91901e-115
3.51774e-111
6.22023e-107
1.06005e-102
1.74086e-98
2.75284e-94
4.19123e-90
6.14488e-86
8.68251e-82
1.18433e-77
1.56289e-73
2.00181e-69
2.49416e-65
3.02532e-61
3.5707e-57
4.08442e-53
4.51753e-49
4.86572e-45
4.99036e-41
8.74826e-38
2.96667e-35
3.0279e-33
1.48423e-31
7.40147e-30
1.25257e-27
3.39754e-32
2.06769e-24
2.10653e-23
2.03856e-22
1.78534e-22
6.82465e-22
2.19515e-21
1.74614e-25
1.19966e-20
1.82867e-19
1.52511e-23
7.83128e-18
1.13912e-15
5.71206e-14
1.51357e-12
2.40412e-11
1.07037e-09
9.5326e-09
2.05292e-08
1.04377e-07
6.13208e-07
1.75195e-06
1.0238e-05
2.68209e-05
6.49365e-05
8.49942e-05
0.000119159
0.000148176
0.00015063
0.000146556
0.000145197
0.000143918
0.000124969
8.09446e-05
3.79891e-05
1.37982e-05
4.29904e-06
9.90918e-07
1.22159e-07
1.15075e-07
1.54986e-07
1.549e-06
3.88101e-06
1.32014e-05
3.23181e-05
5.92926e-05
8.34422e-05
0.000102882
0.000102508
0.000100255
0.000100143
0.000104046
0.000109188
0.000103282
8.07044e-05
5.02783e-05
2.64262e-05
1.23485e-05
4.95046e-06
1.49485e-06
2.8039e-07
4.5663e-08
1.84892e-08
1.22829e-08
8.42542e-09
5.48626e-09
4.40744e-09
4.47157e-09
5.18579e-09
7.26104e-09
1.03779e-08
1.18675e-08
1.17708e-08
1.07034e-08
7.8446e-09
3.85512e-09
1.02733e-09
2.13489e-10
1.48719e-10
1.96741e-10
2.37837e-10
2.64566e-10
3.48236e-10
5.17902e-10
6.00035e-10
5.84768e-10
4.8989e-10
3.49989e-10
3.29815e-10
7.97661e-10
3.13783e-09
1.13939e-08
3.40732e-08
9.66966e-08
3.00862e-07
1.20824e-06
2.09623e-06
3.23431e-06
4.57795e-06
1.08258e-05
1.03611e-05
0.000256774
7.54855e-05
0.00129675
0.000396576
0.002719
0.00141587
0.000575507
0.000206491
1.10655e-06
7.89642e-10
9.57623e-12
3.0161e-12
1.71652e-13
7.68899e-15
3.63887e-16
2.45132e-17
2.59543e-18
5.16122e-19
2.19455e-19
1.47747e-19
1.28735e-19
2.34075e-19
4.66637e-19
7.75713e-19
9.96582e-19
1.07594e-18
9.11511e-19
3.94158e-19
2.08329e-19
4.12519e-19
1.8015e-18
2.82518e-18
2.35862e-17
3.41571e-16
4.77594e-15
8.01746e-14
1.20964e-12
3.37799e-11
4.33506e-11
2.73714e-10
2.06239e-07
4.5956e-05
0.000145363
7.32954e-05
0.000167438
0.000114458
0.000122949
3.05963e-05
7.69356e-06
1.63776e-06
9.32289e-07
3.05488e-07
1.46668e-07
7.05275e-08
3.52175e-08
1.70402e-08
7.04409e-09
2.30395e-09
5.45001e-10
1.09674e-10
2.88536e-11
1.17555e-11
6.6246e-12
3.95926e-12
2.31954e-12
1.34593e-12
7.69852e-13
4.29262e-13
2.32832e-13
1.22805e-13
6.29706e-14
3.14034e-14
1.52664e-14
7.24969e-15
3.38829e-15
1.56564e-15
7.15356e-16
3.23123e-16
1.48152e-16
7.06998e-17
4.06299e-17
2.91014e-17
2.47225e-17
2.36432e-17
2.41022e-17
4.09313e-16
1.04285e-13
1.78552e-11
1.15361e-09
2.41626e-08
1.84554e-07
6.47662e-07
1.29174e-06
1.75906e-06
1.93216e-06
1.95243e-06
1.91164e-06
1.63477e-06
1.18095e-06
7.9134e-07
5.37828e-07
3.94716e-07
3.0697e-07
2.30761e-07
1.49953e-07
5.71627e-08
1.04583e-08
1.14222e-09
4.05077e-10
4.04457e-10
1.17157e-09
3.95854e-08
4.81634e-07
2.60527e-06
6.37997e-06
8.20057e-06
8.24809e-06
7.93813e-06
7.26026e-06
5.91319e-06
4.01989e-06
2.30614e-06
1.23521e-06
6.8315e-07
3.97879e-07
2.34611e-07
6.94317e-08
1.16034e-08
6.70602e-10
5.0817e-11
1.07073e-12
9.9978e-15
3.28575e-16
1.9352e-24
2.19693e-19
3.87912e-21
6.80652e-22
2.14559e-22
6.25807e-23
1.60139e-23
3.92044e-24
8.92621e-25
1.84098e-25
3.25687e-26
5.12194e-27
6.92832e-28
7.94725e-29
7.55183e-30
5.91119e-31
3.64271e-32
1.69078e-33
5.74777e-35
1.37369e-36
2.6459e-38
6.5436e-40
6.55403e-42
1.15431e-44
2.11651e-48
1.2609e-52
8.76378e-57
6.38104e-61
4.63083e-65
3.35653e-69
2.46393e-73
1.85444e-77
1.43236e-81
1.12586e-85
8.88934e-90
6.96186e-94
5.35888e-98
4.0303e-102
2.91794e-106
2.0128e-110
1.32302e-114
8.31262e-119
5.00802e-123
2.90286e-127
1.62305e-131
8.76605e-136
4.57789e-140
2.31413e-144
1.13356e-148
5.37952e-153
2.47562e-157
1.10584e-161
4.79332e-166
2.01839e-170
8.25825e-175
2.81591e-179
-3.83895e-180
-2.17621e-180
-9.71312e-181
-3.58311e-181
-1.13337e-181
-3.15262e-182
-7.84974e-183
-1.77213e-183
-3.66286e-184
-6.9852e-185
-1.23684e-185
-2.04421e-186
-3.16797e-187
-4.62148e-188
-6.36818e-189
-8.31382e-190
-1.03112e-190
-1.21787e-191
-1.37282e-192
-1.47986e-193
-1.52828e-194
-1.51453e-195
-1.44249e-196
-1.32225e-197
-1.16801e-198
-9.95475e-200
-8.19515e-201
-6.52346e-202
-5.02597e-203
-3.75132e-204
-2.71487e-205
-1.90668e-206
-1.30056e-207
-8.62255e-209
-5.56009e-210
-3.48932e-211
-2.13244e-212
-1.26982e-213
-7.37187e-215
-4.17458e-216
-2.30712e-217
-1.24497e-218
-6.56267e-220
-3.38087e-221
-1.70289e-222
-8.38935e-224
-4.04414e-225
-1.9083e-226
-8.81754e-228
-3.99102e-229
-1.77013e-230
-7.69569e-232
-3.28056e-233
-1.37161e-234
-5.62629e-236
-2.26484e-237
-8.94943e-239
-3.47223e-240
-1.32308e-241
-4.95272e-243
-1.82172e-244
-6.58576e-246
-2.34052e-247
-8.17888e-249
-2.81087e-250
-9.50249e-252
-3.1606e-253
-1.03447e-254
-3.33259e-256
-1.05693e-257
-3.30047e-259
-1.01494e-260
-3.07401e-262
-9.17152e-264
-2.69612e-265
-7.81027e-267
-2.2298e-268
-6.27457e-270
-1.74051e-271
-4.7599e-273
-1.28352e-274
-3.41303e-276
-8.9509e-278
-2.31543e-279
-5.90857e-281
-1.48754e-282
-3.6952e-284
-9.05807e-286
-2.19133e-287
-5.23238e-289
-1.23326e-290
-2.86956e-292
-6.59214e-294
-1.49531e-295
-3.3494e-297
-7.40933e-299
-1.61884e-300
-3.4937e-302
-7.44876e-304
-1.56907e-305
-3.26578e-307
-6.71356e-309
-1.30857e-310
-1.34276e-311
0
0
0
0
0
0
0
0
0
0
0
0
0
0
0
0
0
0
0
0
0
0
0
0
0
0
0
0
0
0
0
0
0
0
0
0
0
0
0
0
0
0
0
0
0
0
0
0
0
0
0
0
0
0
0
0
0
0
0
0
0
0
0
0
0
0
0
0
0
0
0
0
0
0
0
0
0
0
0
0
0
0
0
0
0
0
0
0
0
0
0
0
0
0
0
0
0
0
0
0
0
0
0
0
0
0
0
0
0
0
0
0
0
0
0
0
0
0
0
0
0
0
0
0
0
0
0
0
0
0
0
0
0
0
0
0
0
0
0
0
0
0
0
0
0
0
0
0
0
0
0
0
0
0
0
0
0
0
0
0
0
0
0
0
0
-2.40572e-312
-2.66101e-311
-6.49654e-310
-3.37477e-308
-1.69804e-306
-8.44359e-305
-4.14894e-303
-2.01421e-301
-9.66001e-300
-4.57628e-298
-2.14126e-296
-9.89467e-295
-4.51527e-293
-2.03467e-291
-9.05332e-290
-3.97746e-288
-1.72529e-286
-7.38836e-285
-3.12347e-283
-1.30346e-281
-5.36906e-280
-2.18273e-278
-8.75725e-277
-3.46706e-275
-1.35438e-273
-5.21985e-272
-1.98459e-270
-7.44271e-269
-2.75288e-267
-1.00412e-265
-3.61141e-264
-1.28056e-262
-4.47613e-261
-1.54221e-259
-5.23679e-258
-1.75216e-256
-5.77553e-255
-1.87524e-253
-5.99658e-252
-1.88829e-250
-5.85425e-249
-1.78654e-247
-5.36548e-246
-1.58553e-244
-4.60914e-243
-1.31782e-241
-3.70504e-240
-1.02408e-238
-2.78214e-237
-7.42735e-236
-1.94802e-234
-5.01828e-233
-1.26943e-231
-3.15239e-230
-7.68308e-229
-1.83727e-227
-4.30949e-226
-9.91219e-225
-2.23496e-223
-4.93839e-222
-1.06899e-220
-2.26615e-219
-4.70293e-218
-9.55107e-217
-1.89745e-215
-3.68592e-214
-6.99837e-213
-1.29816e-211
-2.35151e-210
-4.15758e-209
-7.17127e-208
-1.20611e-206
-1.97687e-205
-3.15589e-204
-4.90409e-203
-7.41344e-202
-1.08944e-200
-1.55514e-199
-2.15468e-198
-2.89528e-197
-3.76982e-196
-4.75207e-195
-5.79374e-194
-6.82503e-193
-7.75965e-192
-8.50474e-191
-8.97452e-190
-9.10539e-189
-8.86913e-188
-8.28057e-187
-7.39736e-186
-6.31101e-185
-5.13112e-184
-3.96651e-183
-2.90782e-182
-2.01574e-181
-1.31703e-180
-8.08054e-180
-4.63576e-179
-2.47446e-178
-1.22171e-177
-5.54016e-177
-2.28748e-176
-8.50434e-176
-2.8038e-175
-8.00996e-175
-1.90947e-174
-3.59425e-174
-3.05571e-174
1.65438e-170
3.93557e-166
9.09299e-162
2.03884e-157
4.43777e-153
9.36725e-149
1.91565e-144
3.79635e-140
7.28276e-136
1.351e-131
2.42134e-127
4.18719e-123
6.96927e-119
1.1128e-114
1.69937e-110
2.47429e-106
3.43504e-102
4.58125e-98
5.97132e-94
7.65208e-90
9.72559e-86
1.24048e-81
1.60691e-77
2.13056e-73
2.88895e-69
3.96049e-65
5.4193e-61
7.39131e-57
1.07395e-52
1.85466e-48
1.07537e-44
6.2953e-42
6.31825e-40
2.4499e-38
1.25585e-36
5.27751e-35
1.56084e-33
3.3713e-32
5.50575e-31
7.04177e-30
7.4352e-29
6.49421e-28
4.81056e-27
3.06561e-26
1.73507e-25
8.42865e-25
3.70795e-24
1.51637e-23
5.94533e-23
2.04294e-22
6.50275e-22
3.71806e-21
2.11746e-19
1.8441e-24
2.99955e-16
9.62142e-15
1.02713e-12
4.89471e-11
6.54911e-10
1.11982e-08
6.7808e-08
2.3068e-07
3.9462e-07
6.77782e-07
1.22248e-06
2.27829e-06
3.97001e-06
5.85151e-06
7.21971e-06
7.9144e-06
8.21349e-06
8.16531e-06
6.38537e-06
2.64284e-06
4.98478e-07
4.19755e-08
1.26997e-09
5.31064e-10
5.31869e-10
1.36371e-09
1.18288e-08
6.30402e-08
1.61975e-07
2.42755e-07
3.13746e-07
3.94596e-07
5.29676e-07
7.70709e-07
1.13903e-06
1.56792e-06
1.83387e-06
1.87249e-06
1.84742e-06
1.66591e-06
1.20424e-06
6.00227e-07
1.76038e-07
2.51481e-08
1.41751e-09
2.76804e-11
1.78222e-13
4.74095e-15
3.25691e-15
2.68972e-15
1.95851e-15
1.1441e-15
8.82236e-16
9.40736e-16
1.43606e-15
2.86387e-15
5.64768e-15
9.12513e-15
1.19119e-14
1.38164e-14
1.58698e-14
1.9729e-14
2.84041e-14
4.7067e-14
8.3767e-14
1.50647e-13
2.66336e-13
4.59549e-13
7.74223e-13
1.27404e-12
2.05744e-12
3.24481e-12
5.22387e-12
1.06228e-11
1.9449e-11
3.84762e-11
1.01533e-10
3.79889e-10
1.34648e-09
3.3502e-09
4.84674e-09
9.56598e-09
1.96104e-08
3.68605e-08
2.03342e-07
1.89972e-07
5.32272e-06
1.55347e-06
9.74504e-06
4.85314e-06
2.54772e-06
1.27163e-09
1.47029e-11
3.30043e-12
1.51919e-13
5.59357e-15
2.16274e-16
1.18828e-17
1.02623e-18
1.69525e-19
6.67361e-20
4.57175e-20
4.09964e-20
8.73715e-20
1.81402e-19
3.11625e-19
4.07494e-19
4.42354e-19
3.79107e-19
1.57186e-19
6.94205e-20
1.36566e-19
6.4059e-19
7.17395e-19
8.95004e-18
1.5228e-16
2.45066e-15
4.68757e-14
8.70638e-13
2.83105e-11
4.41925e-11
3.27916e-10
3.27045e-07
0
2.89497e-07
3.70179e-07
1.21344e-07
2.14283e-07
3.4523e-08
5.59418e-08
8.63929e-09
4.82985e-09
2.10009e-09
9.58318e-10
3.91005e-10
1.51755e-10
6.45658e-11
3.26651e-11
1.70885e-11
1.00705e-11
6.50612e-12
3.99289e-12
2.35574e-12
1.33898e-12
7.3694e-13
3.97586e-13
2.10707e-13
1.094e-13
5.55456e-14
2.75689e-14
1.33672e-14
6.32754e-15
2.92136e-15
1.31398e-15
5.7593e-16
2.47093e-16
1.05467e-16
4.65869e-17
2.3021e-17
1.40139e-17
1.07785e-17
9.72249e-18
9.44361e-18
9.41117e-18
1.03013e-17
1.61945e-16
5.70011e-14
4.13987e-12
6.8955e-11
3.88061e-10
1.04465e-09
1.73685e-09