/*--------------------------------*- C++ -*----------------------------------*\
| =========                 |                                                 |
| \\      /  F ield         | OpenFOAM: The Open Source CFD Toolbox           |
|  \\    /   O peration     | Version:  2.2.1                                 |
|   \\  /    A nd           | Web:      www.OpenFOAM.org                      |
|    \\/     M anipulation  |                                                 |
\*---------------------------------------------------------------------------*/
FoamFile
{
    version     2.0;
    format      ascii;
    class       volScalarField;
    location    "4e-05";
    object      p_rgh;
}
// * * * * * * * * * * * * * * * * * * * * * * * * * * * * * * * * * * * * * //

dimensions      [1 -1 -2 0 0 0 0];

internalField   nonuniform List<scalar> 
22464
(
10596.8
16540.7
20759.4
23899
27868.2
32675.1
39653.1
45871
37652
11900.7
2429.51
1547.75
707.667
522.663
231.219
91.3425
49.0866
37.8607
40.5352
54.9144
35.1105
28.8476
29.0118
32.5389
37.6334
44.6623
48.3344
50.0254
50.5058
50.508
49.227
47.4039
45.5652
44.1519
43.9472
45.3678
46.7042
46.7315
45.98
45.9104
47.5457
49.4803
50.2175
49.6959
48.7409
48.2222
47.7289
47.3523
46.4426
45.7019
43.8037
42.1075
39.0444
37.8445
35.2576
34.2177
30.2905
27.1974
24.6739
29.1771
40.9338
61.5189
90.1065
139.737
235.77
315.285
256.224
181.198
74.6852
54.2547
35.4868
31.3642
28.1522
27.9391
27.7648
30.2776
30.0933
31.8709
26.3138
29.1998
36.0831
46.7862
54.3354
65.6152
97.9636
200.256
391.816
433.198
293.543
105.957
51.3763
34.9344
25.511
23.1561
22.0717
22.8573
23.5234
22.6416
20.8636
19.5998
18.4367
17.3878
16.4155
15.7526
15.371
15.1874
15.1051
15.0562
15.0139
14.9707
14.9254
14.8788
14.8309
14.7818
14.7316
14.6803
14.6281
14.5747
14.5202
14.4646
14.4078
14.3498
14.2907
14.2304
14.1691
14.1069
14.0436
13.9794
13.9141
13.8479
13.7807
13.7126
13.6438
13.5742
13.504
13.4332
13.3617
13.2897
13.2171
13.1438
13.0698
12.9951
12.9198
12.8437
12.767
12.6896
12.6115
12.5328
12.4535
12.3735
12.2928
12.2114
12.1294
12.0466
11.9631
11.8789
11.7941
11.7086
11.6226
11.5361
11.4492
11.3618
11.2741
11.1861
11.0978
11.0092
10.9203
10.8313
10.742
10.6524
10.5626
10.4725
10.3822
10.2915
10.2006
10.1092
10.0176
9.92553
9.83313
9.74036
9.64723
9.55372
9.45985
9.36563
9.27107
9.17618
9.08098
8.98547
8.88969
8.79365
8.69737
8.60087
8.50418
8.40729
8.31024
8.21302
8.11566
8.01817
7.92056
7.82284
7.72503
7.62713
7.52915
7.4311
7.333
7.23485
7.13666
7.03844
6.94019
6.84193
6.74365
6.64538
6.54711
6.44885
6.35061
6.25238
6.15418
6.05601
5.95788
5.8598
5.76177
5.66381
5.56591
5.46807
5.37031
5.27264
5.17505
5.07756
4.98018
4.8829
4.78574
4.68872
4.59183
4.49511
4.39855
4.30218
4.20601
4.11005
4.01432
3.91885
3.82365
3.72874
3.63414
3.53988
3.44598
3.35247
3.25938
3.16674
3.07457
2.98293
2.89182
2.80131
2.71142
2.6222
2.53369
2.44594
2.35899
2.27289
2.1877
2.10344
2.02018
1.93795
1.85681
1.7768
1.69796
1.62032
1.54391
1.46874
1.39479
1.32201
1.25039
1.17992
1.11069
1.0427
0.975849
0.910016
0.845968
0.783312
0.720959
0.661006
0.592145
0.516979
0.428171
0.327543
0.230708
0.228566
0.328482
0.432477
0.520988
0.595424
0.655557
0.716692
0.778102
0.840906
0.905026
0.970436
1.03714
1.10506
1.17415
1.24443
1.31592
1.38866
1.46269
1.53806
1.61474
1.69269
1.77186
1.85216
1.9335
2.01583
2.09908
2.1832
2.26816
2.35393
2.4405
2.52785
2.61597
2.70484
2.79443
2.88472
2.97569
3.06728
3.15948
3.25223
3.34549
3.43923
3.5334
3.62797
3.7229
3.81815
3.9137
4.00951
4.10555
4.20182
4.29827
4.39491
4.4917
4.58863
4.6857
4.78288
4.88016
4.97755
5.07502
5.17257
5.27019
5.36789
5.46565
5.56346
5.66133
5.75926
5.85723
5.95525
6.05332
6.15143
6.24957
6.34776
6.44598
6.54423
6.64251
6.74081
6.83914
6.93749
7.03585
7.13421
7.23257
7.33092
7.42926
7.52756
7.62583
7.72405
7.82221
7.9203
8.0183
8.11621
8.214
8.31167
8.4092
8.50657
8.60377
8.70078
8.79758
8.89415
8.99048
9.08654
9.1823
9.27776
9.37289
9.46766
9.56206
9.65606
9.74965
9.84282
9.93555
10.0278
10.1196
10.211
10.3019
10.3924
10.4824
10.5719
10.661
10.7497
10.838
10.9259
11.0134
11.1006
11.1874
11.2739
11.36
11.4459
11.5314
11.6166
11.7015
11.7861
11.8703
11.9542
12.0377
12.1208
12.2033
12.2853
12.3666
12.4473
12.5271
12.6062
12.6843
12.7616
12.8381
12.9136
12.9884
13.0624
13.1358
13.2086
13.2808
13.3525
13.4236
13.4941
13.5641
13.6333
13.7018
13.7695
13.8364
13.9025
13.9676
14.032
14.0955
14.1582
14.2201
14.2811
14.3411
14.4001
14.4579
14.5146
14.5699
14.6238
14.6762
14.7273
14.7768
14.825
14.8718
14.9174
14.9618
15.0044
15.0463
15.0949
15.1767
15.3592
15.7387
16.3995
17.3723
18.4251
19.584
20.8309
22.6067
23.5333
22.9114
22.0896
23.1048
25.3976
34.5764
50.5911
103.678
285.649
432.592
396.011
203.4
99.6232
66.3816
54.7065
46.9226
35.9229
28.9046
26.1674
31.9718
30.1931
30.0834
27.4527
27.5225
27.9056
31.44
35.9324
56.2864
77.5316
189.242
263.725
308.353
224.405
134.393
87.3179
59.2395
39.2842
28.0204
23.5543
26.0136
29.9198
34.7875
35.6427
38.5662
40.227
43.8621
45.6074
47.6425
47.2287
47.642
47.2815
46.885
45.8206
45.4973
45.1562
45.9281
47.0163
48.3291
48.1346
47.5101
46.8091
46.0978
45.2773
44.2461
43.1093
42.2752
41.5308
41.4117
42.2229
43.7505
45.8949
48.1297
50.1103
51.4091
51.6066
50.0198
47.0141
41.6639
38.0523
42.2802
64.5688
41.1675
27.6339
22.9147
33.4537
118.113
246.842
762.045
1179.44
4722.95
5554.42
34073.8
39152.5
65367.2
43794.6
39691.5
13905.1
0.194703
0.160192
0.132822
0.106408
0.0829961
0.059672
0.0391359
0.0229337
0.00966749
-0.00254024
-0.0149398
-0.028165
-0.042499
-0.0580734
-0.0749174
-0.0929938
-0.11223
-0.132536
-0.153818
-0.175975
-0.198905
-0.222504
-0.246663
-0.271272
-0.296222
-0.321403
-0.346707
-0.372028
-0.397266
-0.422321
-0.447103
-0.471525
-0.495504
-0.518968
-0.541848
-0.564081
-0.585613
-0.606394
-0.62638
-0.645535
-0.663825
-0.681224
-0.697708
-0.71326
-0.727864
-0.741509
-0.754188
-0.765894
-0.776623
-0.786375
-0.795148
-0.802944
-0.809763
-0.815607
-0.820479
-0.824379
-0.82731
-0.829274
-0.83027
-0.830299
-0.829362
-0.827457
-0.824583
-0.820738
-0.815919
-0.810124
-0.803351
-0.795596
-0.786858
-0.777135
-0.766428
-0.754736
-0.742062
-0.728414
-0.713796
-0.698221
-0.681702
-0.664259
-0.645913
-0.626692
-0.60663
-0.585765
-0.564143
-0.541815
-0.518838
-0.495278
-0.471205
-0.446697
-0.421837
-0.396715
-0.371426
-0.346067
-0.32074
-0.295551
-0.270603
-0.246004
-0.22186
-0.198274
-0.175351
-0.153191
-0.131894
-0.111553
-0.0922552
-0.0740785
-0.0570692
-0.0412535
-0.0266752
-0.0137209
-0.00311857
0.00488818
0.0117937
0.0210859
0.0354015
0.0529341
0.0766838
0.113411
0.150513
0.190449
-134.072
-58.4995
-14.4902
-18.9226
-16.6121
-12.658
-9.90059
-8.08167
-6.77143
-5.78655
-5.04253
-4.48208
-4.06219
-3.75116
-3.52607
-3.3701
-3.27093
-3.21948
-3.20929
-3.23634
-3.29817
-3.39333
-3.52167
-3.68357
-3.87987
-4.11261
-4.38489
-4.70055
-5.06529
-5.49688
-6.074
-6.99631
-8.16626
-7.8214
-6.13265
-49.3267
783.857
1507.35
0.263926
0.367862
0.46261
0.548852
0.611581
0.676414
0.741303
0.807893
0.875388
0.943849
1.01319
1.08339
1.15447
1.2265
1.29953
1.37359
1.44874
1.52504
1.6025
1.6811
1.76079
1.84153
1.92324
2.00588
2.08939
2.17373
2.25888
2.34481
2.4315
2.51893
2.60709
2.69597
2.78553
2.87577
2.96664
3.05812
3.15016
3.24275
3.33583
3.42938
3.52335
3.6177
3.71242
3.80745
3.90278
3.99837
4.0942
4.19025
4.28649
4.38291
4.4795
4.57623
4.67309
4.77006
4.86715
4.96434
5.06161
5.15897
5.2564
5.3539
5.45147
5.5491
5.64678
5.74451
5.8423
5.94013
6.03801
6.13593
6.23389
6.33189
6.42992
6.52798
6.62608
6.7242
6.82234
6.9205
7.01867
7.11684
7.21502
7.31318
7.41132
7.50943
7.60751
7.70553
7.80349
7.90139
7.99919
8.09689
8.19449
8.29195
8.38927
8.48643
8.58342
8.68022
8.7768
8.87316
8.96926
9.0651
9.16064
9.25587
9.35076
9.44529
9.53945
9.63321
9.72656
9.81947
9.91194
10.004
10.0955
10.1866
10.2772
10.3674
10.4571
10.5464
10.6352
10.7236
10.8116
10.8992
10.9864
11.0733
11.1598
11.2459
11.3317
11.4172
11.5024
11.5873
11.6719
11.7561
11.84
11.9236
12.0067
12.0894
12.1716
12.2532
12.3342
12.4145
12.494
12.5726
12.6504
12.7272
12.8032
12.8783
12.9527
13.0262
13.0992
13.1715
13.2432
13.3144
13.3851
13.4552
13.5247
13.5935
13.6615
13.7287
13.7951
13.8606
13.9252
13.989
14.052
14.1142
14.1755
14.2359
14.2953
14.3537
14.4109
14.4668
14.5214
14.5746
14.6262
14.6763
14.7249
14.7719
14.8172
14.8609
14.9027
14.942
14.9768
15.0036
15.0185
15.0219
15.0208
15.0239
15.0456
15.0809
15.1242
15.1083
15.0737
15.1357
15.4786
15.6193
15.8095
15.7073
15.8506
17.6015
16.1225
26.6148
24.035
39.631
42.8076
42.9606
41.0443
36.3426
28.1666
22.2944
21.0334
20.3166
17.2488
15.0254
14.4664
13.9594
14.45
14.402
15.3632
15.0464
17.3071
17.5434
22.6729
24.5771
31.9549
38.4188
39.503
33.8876
26.109
20.5563
18.4515
18.3153
17.2573
15.1778
13.6624
12.9916
12.7545
12.6377
12.6493
12.6028
12.6711
12.6747
12.6662
12.4593
12.3874
12.2976
12.1929
12.0615
11.8195
11.4933
11.2116
11.0545
10.9043
10.6532
10.38
10.085
9.83282
9.58381
9.30345
9.05008
8.80824
8.49041
8.12758
7.74516
7.34213
6.90714
6.37959
5.83128
5.21442
4.80525
4.7519
4.64887
1.98955
-0.615656
2.59345
1.28152
-3.47002
-22.5581
-3.90002
-65.5889
109.495
-166.759
650.458
-153.496
1459.46
278.653
2221.31
-27.2967
-211.062
6295.65
11399.5
15641.9
17986.5
17101.9
10437.4
4388.04
2361.89
533.63
114.983
146.746
-9.2871
46.8502
-12.0005
7.06994
3.59277
9.74852
8.4317
4.66904
4.92493
6.94446
7.27221
7.48067
7.37057
7.35875
7.71652
8.3592
8.80147
9.09908
9.38849
9.69249
10.0045
10.331
10.6655
10.5728
10.6116
10.904
11.3817
11.6612
11.7624
11.7168
11.8613
12.142
12.4189
12.5548
12.6196
12.7008
12.7325
12.751
12.6512
12.6749
12.6997
12.9059
12.9839
13.9567
15.4457
17.4587
18.6665
18.9904
21.2436
27.0873
34.9372
40.0971
38.5083
31.2226
25.3483
22.4314
17.4595
17.2087
15.0895
15.3799
14.4428
14.4782
14.0205
14.5348
15.1119
17.3331
20.3305
21.0591
22.3671
28.2449
36.3425
40.9507
42.7652
42.6591
40.191
23.8699
26.9472
16.0705
17.6853
15.8653
15.7202
15.8237
15.6338
15.5028
15.154
15.0845
15.1161
15.1331
15.0906
15.0551
15.033
15.0299
15.0311
15.028
15.0133
14.9865
14.9514
14.9115
14.8688
14.8241
14.7776
14.7297
14.6805
14.6302
14.5788
14.5262
14.4724
14.4175
14.3613
14.3039
14.2454
14.1857
14.125
14.0633
14.0007
13.9369
13.8722
13.8065
13.7398
13.6722
13.6038
13.5347
13.465
13.3947
13.3237
13.2522
13.18
13.1072
13.0336
12.9594
12.8845
12.8088
12.7325
12.6555
12.5779
12.4996
12.4207
12.3411
12.2608
12.1798
12.0981
12.0157
11.9325
11.8487
11.7642
11.6791
11.5934
11.5073
11.4206
11.3336
11.2462
11.1584
11.0704
10.9821
10.8936
10.8048
10.7158
10.6266
10.5371
10.4473
10.3573
10.2669
10.1762
10.0851
9.99373
9.90196
9.80982
9.71731
9.62442
9.53117
9.43754
9.34356
9.24923
9.15457
9.05959
8.96431
8.86874
8.77292
8.67685
8.58057
8.48409
8.38741
8.29057
8.19356
8.0964
7.99911
7.90169
7.80417
7.70656
7.60885
7.51107
7.41322
7.31531
7.21735
7.11935
7.02132
6.92326
6.82519
6.72711
6.62902
6.53094
6.43287
6.33482
6.23678
6.13877
6.04079
5.94285
5.84496
5.74713
5.64936
5.55165
5.45401
5.35645
5.25897
5.16158
5.06429
4.9671
4.87002
4.77306
4.67623
4.57955
4.48302
4.38667
4.29049
4.19452
4.09876
4.00322
3.90794
3.81293
3.71821
3.62379
3.52971
3.43598
3.34264
3.2497
3.1572
3.06518
2.97365
2.88266
2.79223
2.70241
2.61324
2.52475
2.43699
2.34999
2.26381
2.17847
2.09402
2.01051
1.92797
1.84643
1.76593
1.68651
1.60817
1.53094
1.4548
1.37973
1.30566
1.23251
1.16031
1.08919
1.01881
0.949075
0.880151
0.812987
0.748282
0.682896
0.621175
0.539778
0.456799
0.363043
0.263929
0.206802
0.173835
0.155662
0.153899
0.143869
0.125905
0.110376
0.0975487
0.0853231
0.0726313
0.0592067
0.0449707
0.0297248
0.0133807
-0.00404868
-0.0225038
-0.0419069
-0.0621754
-0.0832266
-0.104976
-0.127337
-0.150218
-0.173524
-0.197157
-0.22102
-0.245014
-0.269043
-0.293013
-0.316834
-0.340419
-0.363685
-0.386556
-0.408961
-0.430834
-0.452115
-0.472749
-0.492688
-0.511889
-0.530312
-0.547926
-0.564701
-0.580614
-0.595643
-0.609772
-0.622988
-0.63528
-0.646641
-0.657064
-0.666546
-0.675084
-0.682677
-0.689324
-0.695026
-0.699783
-0.703595
-0.706462
-0.708387
-0.709368
-0.709407
-0.708504
-0.706657
-0.703865
-0.700128
-0.695443
-0.68981
-0.683227
-0.675694
-0.667209
-0.657774
-0.647388
-0.636056
-0.623783
-0.610575
-0.596441
-0.581395
-0.565452
-0.548631
-0.530956
-0.512457
-0.493166
-0.473124
-0.452375
-0.430972
-0.40897
-0.386434
-0.363434
-0.340046
-0.316352
-0.292438
-0.268395
-0.244315
-0.220295
-0.196428
-0.172808
-0.149527
-0.126672
-0.10433
-0.0825831
-0.061513
-0.0411981
-0.0217122
-0.0031286
0.0144831
0.0310698
0.04669
0.0612168
0.0745374
0.0866938
0.0982986
0.110355
0.127189
0.153265
0.160757
0.141864
0.163771
0.203259
-56.8297
-19.1902
-21.23
-19.5419
-15.6629
-12.523
-10.3445
-8.74756
-7.52971
-6.59741
-5.88725
-5.35002
-4.94884
-4.65684
-4.45438
-4.32702
-4.26381
-4.25705
-4.3024
-4.39762
-4.54175
-4.73585
-4.98194
-5.28336
-5.64659
-6.08258
-6.60698
-7.24122
-8.02696
-9.07671
-10.5785
-12.1563
-11.9636
-10.1112
-37.3298
359.77
0.302495
0.261197
0.23885
0.255701
0.244341
0.214533
0.195562
0.182204
0.169313
0.155987
0.142378
0.128393
0.11359
0.0977667
0.0809431
0.0631938
0.0446007
0.0252425
0.00519274
-0.015478
-0.0366971
-0.0583875
-0.0804673
-0.102851
-0.125452
-0.148181
-0.170952
-0.193678
-0.216275
-0.238664
-0.260767
-0.282512
-0.303834
-0.324668
-0.344959
-0.364652
-0.383701
-0.402063
-0.419701
-0.436581
-0.452674
-0.467954
-0.482401
-0.495996
-0.508725
-0.520575
-0.531537
-0.541602
-0.550767
-0.559026
-0.566376
-0.572815
-0.578343
-0.582958
-0.586659
-0.589447
-0.591322
-0.592283
-0.592331
-0.591466
-0.589687
-0.586993
-0.583384
-0.578859
-0.573417
-0.56706
-0.559787
-0.551598
-0.542496
-0.532483
-0.521564
-0.509745
-0.497034
-0.483443
-0.468985
-0.453676
-0.437537
-0.420591
-0.402869
-0.384404
-0.365235
-0.345406
-0.324968
-0.303976
-0.282492
-0.260584
-0.238327
-0.2158
-0.193085
-0.170267
-0.147435
-0.124676
-0.102076
-0.0797169
-0.0576745
-0.0360198
-0.0148193
0.00586326
0.0259679
0.0454386
0.0642137
0.0821991
0.0992574
0.115434
0.130557
0.144515
0.157609
0.170671
0.183524
0.193736
0.203548
0.24417
0.282775
0.205918
0.242365
0.301783
317.066
521.905
52.5348
-25.7557
16.6283
97.6724
45.1199
8.56513
25.0753
19.2034
-3.54433
7.84053
-2.47837
2.14905
2.46335
2.67745
4.31494
5.28403
5.70758
6.32576
6.80503
7.09534
7.26419
7.45692
7.77296
8.18218
8.56836
8.90197
9.20881
9.50631
9.79852
10.0801
10.3197
10.4659
10.6226
10.8602
11.1489
11.3929
11.5596
11.6716
11.8146
12.0136
12.2162
12.3766
12.5055
12.6267
12.7485
12.8897
13.0678
13.3253
13.6354
13.9429
14.0346
14.0228
14.2628
14.7267
14.7351
14.1477
13.6254
13.1503
12.8698
13.4282
14.9359
16.2151
16.7684
16.3769
15.5864
15.7156
15.3424
15.4667
15.4435
15.7092
16.1044
16.3241
15.8809
16.15
17.2211
16.871
15.7002
14.7539
14.419
14.4189
14.9269
14.7323
17.3184
18.3236
17.7526
15.587
15.8837
15.524
15.4991
15.5412
15.4979
15.391
15.2436
15.1563
15.1217
15.0988
15.0677
15.0371
15.0133
14.9972
14.9841
14.9692
14.9486
14.9213
14.8882
14.8507
14.8099
14.7668
14.7217
14.675
14.6268
14.5774
14.5268
14.475
14.422
14.3677
14.3121
14.2554
14.1975
14.1384
14.0784
14.0173
13.9552
13.892
13.8278
13.7626
13.6964
13.6294
13.5615
13.493
13.4237
13.3539
13.2835
13.2124
13.1407
13.0683
12.9952
12.9215
12.847
12.7718
12.6959
12.6194
12.5422
12.4643
12.3858
12.3066
12.2267
12.1461
12.0648
11.9828
11.9
11.8165
11.7324
11.6476
11.5623
11.4765
11.3902
11.3035
11.2164
11.129
11.0413
10.9534
10.8652
10.7767
10.688
10.5991
10.5099
10.4204
10.3307
10.2406
10.1502
10.0594
9.96829
9.87681
9.78494
9.6927
9.60008
9.50708
9.41371
9.31997
9.22589
9.13147
9.03672
8.94168
8.84635
8.75075
8.65492
8.55886
8.4626
8.36614
8.26951
8.17272
8.07577
7.97869
7.88149
7.78418
7.68678
7.58928
7.4917
7.39405
7.29634
7.19859
7.10079
7.00296
6.9051
6.80723
6.70934
6.61146
6.51358
6.41571
6.31785
6.22001
6.1222
6.02442
5.92668
5.82899
5.73136
5.63379
5.53628
5.43884
5.34148
5.24421
5.14702
5.04994
4.95295
4.85608
4.75932
4.6627
4.56621
4.46989
4.37373
4.27776
4.18198
4.08642
3.99108
3.89599
3.80117
3.70663
3.61239
3.51848
3.42491
3.33172
3.23893
3.14657
3.05467
2.96325
2.87234
2.78199
2.69221
2.60306
2.51456
2.42675
2.33968
2.25336
2.16785
2.08317
1.99936
1.91644
1.83446
1.75342
1.67335
1.59426
1.51615
1.43901
1.36278
1.2873
1.21245
1.13857
1.06537
0.992451
0.919823
0.847698
0.776609
0.706611
0.635959
0.601607
0.47944
0.393429
0.398516
0.523633
0.560204
0.629064
0.700161
0.771588
0.842916
0.914743
0.986937
1.05954
1.13266
1.2065
1.2811
1.35653
1.43286
1.51016
1.58846
1.66778
1.74808
1.82933
1.91148
1.99449
2.07831
2.16292
2.24829
2.33439
2.42122
2.50875
2.59698
2.68588
2.77544
2.86563
2.95642
3.0478
3.13972
3.23215
3.32507
3.41843
3.51221
3.60637
3.70087
3.79569
3.89081
3.98618
4.0818
4.17763
4.27367
4.36988
4.46625
4.56277
4.65942
4.7562
4.85308
4.95006
5.04713
5.14429
5.24152
5.33882
5.43619
5.53362
5.63111
5.72864
5.82623
5.92387
6.02155
6.11928
6.21704
6.31484
6.41268
6.51055
6.60844
6.70637
6.80431
6.90227
7.00025
7.09822
7.19619
7.29416
7.39209
7.49
7.58787
7.68569
7.78345
7.88113
7.97873
8.07622
8.1736
8.27084
8.36794
8.46489
8.56165
8.65822
8.75458
8.85071
8.94658
9.04218
9.13748
9.23247
9.32711
9.4214
9.5153
9.60881
9.70189
9.79454
9.88674
9.97848
10.0698
10.1606
10.2509
10.3408
10.4302
10.5191
10.6077
10.6958
10.7834
10.8707
10.9576
11.0441
11.1303
11.2161
11.3016
11.3867
11.4716
11.5561
11.6403
11.7242
11.8078
11.891
11.9738
12.0561
12.1379
12.2192
12.2998
12.3796
12.4587
12.5369
12.6143
12.6907
12.7662
12.8409
12.9147
12.9878
13.0603
13.1321
13.2034
13.2742
13.3444
13.414
13.483
13.5513
13.6188
13.6855
13.7513
13.8162
13.8803
13.9436
14.006
14.0676
14.1283
14.1881
14.2469
14.3046
14.3612
14.4164
14.4703
14.5226
14.5734
14.6227
14.6702
14.7161
14.7601
14.8022
14.8421
14.879
14.9119
14.9392
14.9599
14.9751
14.9883
15.0045
15.0282
15.0586
15.0895
15.1118
15.1443
15.2285
15.3742
15.4831
15.5277
15.4856
15.5083
15.8545
15.5875
17.6643
18.2658
17.3081
14.7925
14.8665
14.3766
14.3828
14.7188
15.656
16.8297
17.1821
16.1003
15.8346
16.3133
16.1009
15.7024
15.4202
15.4377
15.2906
15.6766
15.4938
16.4338
16.8263
16.0845
14.6252
13.3453
12.7824
13.0947
13.5704
14.1018
14.7034
14.6755
14.1916
13.9945
14.0583
13.9301
13.61
13.2981
13.0427
12.8449
12.6856
12.5518
12.4033
12.2753
12.1492
12.0003
11.8167
11.5961
11.3586
11.1345
10.9324
10.7249
10.4881
10.231
9.96444
9.70107
9.4348
9.15721
8.8762
8.58701
8.26763
7.91656
7.5404
7.13876
6.70453
6.22997
5.7282
5.22061
4.77153
4.35194
3.68726
2.54115
1.36878
0.112956
-2.36919
-2.91835
-6.37397
1.58303
-16.1184
27.7011
-43.1494
88.1591
-23.2017
110.932
30.6588
15.3323
-75.1446
-21.4078
-17.4601
-14.8169
-11.6902
-9.42448
-7.92757
-6.84485
-6.0086
-5.35305
-4.84083
-4.44385
-4.14158
-3.91889
-3.76445
-3.67001
-3.6289
-3.63656
-3.69099
-3.79147
-3.93868
-4.13469
-4.38338
-4.69166
-5.07088
-5.53919
-6.12359
-6.86398
-7.83163
-9.19275
-11.2327
-13.7024
-14.7701
-15.7985
-67.9436
-66.7789
-51.6423
-24.9633
-5.8843
8.62034
9.4758
5.72663
10.2502
8.81466
4.19013
4.3404
1.70236
2.55396
2.79106
3.37222
4.25682
4.89498
5.44485
6.00556
6.45124
6.8007
7.0762
7.35037
7.67228
8.03482
8.38944
8.71922
9.02978
9.32736
9.61331
9.88324
10.1255
10.3218
10.5195
10.747
10.9933
11.2157
11.399
11.5542
11.7184
11.9008
12.0832
12.2458
12.391
12.5296
12.6684
12.8193
12.9848
13.1776
13.3778
13.5539
13.6009
13.4888
13.3384
13.4269
13.6611
13.7131
13.5901
13.4332
13.4393
13.8489
14.6205
15.3078
15.7343
15.7446
15.5154
15.4745
15.3397
15.3728
15.3804
15.473
15.4936
15.5512
15.0851
14.5492
14.3372
14.4441
14.533
14.4646
14.418
14.5518
14.9556
15.3811
16.28
16.6826
16.6436
15.9566
15.8017
15.5918
15.5148
15.4761
15.4142
15.3294
15.2286
15.1555
15.1087
15.0735
15.0397
15.0088
14.9823
14.9603
14.9403
14.9193
14.8949
14.8661
14.833
14.7963
14.7566
14.7145
14.6704
14.6246
14.5773
14.5287
14.4788
14.4276
14.3752
14.3215
14.2665
14.2103
14.153
14.0946
14.035
13.9745
13.9129
13.8502
13.7865
13.7218
13.6561
13.5895
13.5221
13.4541
13.3853
13.3159
13.2459
13.1753
13.104
13.0321
12.9594
12.886
12.812
12.7372
12.6617
12.5856
12.5088
12.4313
12.3532
12.2743
12.1948
12.1146
12.0336
11.9519
11.8695
11.7864
11.7026
11.6182
11.5332
11.4477
11.3617
11.2753
11.1885
11.1014
11.014
10.9264
10.8384
10.7503
10.6619
10.5732
10.4843
10.3951
10.3057
10.2159
10.1257
10.0352
9.94436
9.85313
9.76152
9.66952
9.57714
9.48438
9.39124
9.29774
9.20388
9.10968
9.01515
8.92032
8.82521
8.72983
8.6342
8.53835
8.44229
8.34604
8.24961
8.15301
8.05627
7.95939
7.86238
7.76526
7.66805
7.57074
7.47335
7.37589
7.27837
7.1808
7.08319
6.98554
6.88787
6.79018
6.69248
6.59478
6.49708
6.39939
6.30171
6.20406
6.10643
6.00883
5.91127
5.81377
5.71632
5.61892
5.5216
5.42434
5.32717
5.23008
5.13307
5.03617
4.93936
4.84267
4.74609
4.64965
4.55334
4.4572
4.36121
4.26541
4.16981
4.07441
3.97924
3.88431
3.78964
3.69525
3.60115
3.50738
3.41394
3.32088
3.2282
3.13593
3.04411
2.95276
2.8619
2.77158
2.68181
2.59264
2.50409
2.4162
2.329
2.24253
2.15681
2.07187
1.98774
1.90444
1.822
1.74043
1.65973
1.57993
1.50102
1.42298
1.34564
1.26868
1.19244
1.11716
1.04215
0.967061
0.89179
0.816699
0.740836
0.655318
0.548378
0.644007
0.381633
0.332314
0.298166
0.37131
0.330267
0.286299
0.27685
0.266806
0.253328
0.239301
0.225668
0.212299
0.198134
0.182867
0.166627
0.149537
0.131694
0.113179
0.0940584
0.0743914
0.0542354
0.0336539
0.0127164
-0.00850278
-0.0299257
-0.0514729
-0.0730646
-0.0946217
-0.116067
-0.137327
-0.158328
-0.179006
-0.199296
-0.219139
-0.23848
-0.25727
-0.275461
-0.293013
-0.309887
-0.326052
-0.341478
-0.356139
-0.370012
-0.38308
-0.395326
-0.406736
-0.4173
-0.427008
-0.435854
-0.443831
-0.450936
-0.457164
-0.462515
-0.466986
-0.470574
-0.473281
-0.475104
-0.476045
-0.476103
-0.475277
-0.473568
-0.470974
-0.467496
-0.463134
-0.457888
-0.451759
-0.44475
-0.43686
-0.428094
-0.418455
-0.407949
-0.396584
-0.384368
-0.371314
-0.357435
-0.34275
-0.327278
-0.311043
-0.294075
-0.276407
-0.258077
-0.239129
-0.21961
-0.199576
-0.179087
-0.158208
-0.137014
-0.115579
-0.0939846
-0.0723126
-0.0506468
-0.02907
-0.00766025
0.0135117
0.0343847
0.0549055
0.0750277
0.0947106
0.113917
0.132606
0.150691
0.168004
0.184581
0.200285
0.21483
0.228233
0.240977
0.254306
0.267395
0.270738
0.232766
0.186455
0.496929
0.135665
0.299309
0.559941
0.469327
0.572203
0.659285
0.736765
0.811856
0.886909
0.961716
1.03652
1.11131
1.18667
1.26261
1.33922
1.41661
1.49484
1.57396
1.65399
1.73492
1.81671
1.89932
1.98273
2.06688
2.15177
2.23737
2.32367
2.41065
2.49829
2.5866
2.67554
2.76511
2.85529
2.94604
3.03735
3.12919
3.22152
3.31431
3.40754
3.50117
3.59517
3.68951
3.78416
3.8791
3.9743
4.06974
4.1654
4.26125
4.35727
4.45346
4.5498
4.64627
4.74287
4.83957
4.93637
5.03326
5.13024
5.22729
5.32442
5.4216
5.51885
5.61616
5.71352
5.81093
5.90839
6.00589
6.10344
6.20102
6.29864
6.3963
6.49399
6.5917
6.68945
6.78721
6.88499
6.98278
7.08057
7.17836
7.27613
7.37388
7.4716
7.56928
7.66691
7.76448
7.86197
7.95937
8.05666
8.15384
8.25089
8.34779
8.44452
8.54108
8.63745
8.73359
8.82951
8.92517
9.02055
9.11563
9.21039
9.30481
9.39887
9.49254
9.5858
9.67865
9.77105
9.863
9.95448
10.0455
10.136
10.2261
10.3157
10.4048
10.4935
10.5818
10.6696
10.757
10.844
10.9306
11.0168
11.1027
11.1882
11.2733
11.3582
11.4427
11.5269
11.6108
11.6944
11.7776
11.8604
11.9429
12.0249
12.1064
12.1873
12.2675
12.347
12.4257
12.5036
12.5805
12.6565
12.7316
12.8058
12.8793
12.952
13.024
13.0954
13.1663
13.2366
13.3064
13.3756
13.4442
13.512
13.5791
13.6453
13.7106
13.7751
13.8387
13.9014
13.9633
14.0243
14.0845
14.1438
14.202
14.2591
14.315
14.3696
14.4228
14.4745
14.5246
14.5731
14.6199
14.6649
14.708
14.7492
14.788
14.8242
14.857
14.8858
14.9103
14.9316
14.9518
14.9738
15.0001
15.0308
15.0641
15.0984
15.1437
15.215
15.3145
15.3995
15.4612
15.4985
15.5729
15.7766
15.9331
16.5979
16.6517
16.2548
15.3761
14.9266
14.5211
14.3889
14.4385
14.511
14.4235
14.3078
14.5071
15.0471
15.5291
15.4785
15.4526
15.3548
15.3419
15.2988
15.4337
15.4699
15.7292
15.6931
15.2199
14.4727
13.7458
13.3637
13.3806
13.5497
13.6808
13.6412
13.4191
13.3355
13.4951
13.6172
13.5518
13.3631
13.1519
12.9514
12.7741
12.6117
12.4617
12.3084
12.1628
12.0136
11.8502
11.6654
11.4572
11.2359
11.0154
10.8004
10.5794
10.3412
10.0887
9.82642
9.56
9.28724
9.00472
8.71348
8.40951
8.08298
7.73174
7.35688
6.95766
6.53152
6.07553
5.5957
5.10141
4.61264
4.09396
3.43177
2.52368
1.5397
0.667961
-0.5427
-1.20588
-1.73459
0.743893
0.364969
9.42436
3.98149
24.6838
12.607
24.7927
10.3214
3.24606
-4.24821
-6.32654
-6.36876
-5.98395
-5.55346
-5.12026
-4.70821
-4.33934
-4.02363
-3.76281
-3.55572
-3.39963
-3.292
-3.23059
-3.21286
-3.23728
-3.30383
-3.41326
-3.56719
-3.7686
-4.023
-4.33957
-4.73259
-5.22332
-5.84274
-6.63453
-7.67386
-9.13079
-11.2803
-13.7842
-14.4563
-14.3998
0.574231
-13.897
-9.44726
-4.6876
-0.123792
2.74489
2.68095
5.17941
5.3174
3.73946
3.80892
2.41383
2.91391
3.07629
3.56246
4.21221
4.73274
5.2467
5.76566
6.2015
6.57538
6.9001
7.21438
7.54578
7.89344
8.23361
8.55763
8.86687
9.16304
9.44613
9.71401
9.9621
10.1813
10.397
10.623
10.8543
11.0694
11.2613
11.435
11.6095
11.7893
11.9661
12.1303
12.2834
12.4311
12.5774
12.728
12.8843
13.0482
13.2044
13.34
13.4033
13.4046
13.3908
13.471
13.5945
13.6383
13.6288
13.6333
13.7405
14.0423
14.5051
14.933
15.2445
15.3402
15.2819
15.2829
15.2179
15.2309
15.2206
15.2264
15.1468
15.0098
14.8314
14.652
14.566
14.5692
14.5881
14.5911
14.638
14.7785
15.0536
15.3626
15.8563
16.0701
16.113
15.8126
15.7079
15.5511
15.4713
15.4135
15.3486
15.2763
15.1976
15.1347
15.087
15.0477
15.0116
14.979
14.9499
14.924
14.8993
14.8741
14.8466
14.8161
14.7824
14.7458
14.7066
14.6652
14.6218
14.5768
14.5302
14.4822
14.4329
14.3823
14.3304
14.2772
14.2227
14.1671
14.1103
14.0524
13.9934
13.9333
13.8722
13.81
13.7468
13.6825
13.6173
13.5512
13.4842
13.4166
13.3483
13.2793
13.2097
13.1395
13.0686
12.9971
12.9248
12.8518
12.7781
12.7037
12.6286
12.5529
12.4764
12.3993
12.3215
12.2431
12.1639
12.084
12.0034
11.922
11.8399
11.7571
11.6737
11.5896
11.5049
11.4197
11.334
11.2479
11.1614
11.0746
10.9875
10.9001
10.8125
10.7246
10.6365
10.5481
10.4595
10.3706
10.2813
10.1918
10.1019
10.0117
9.92105
9.83006
9.73869
9.64693
9.55478
9.46225
9.36934
9.27605
9.1824
9.08841
8.9941
8.89947
8.80456
8.70938
8.61396
8.51831
8.42244
8.32638
8.23014
8.13374
8.03718
7.94049
7.84367
7.74673
7.6497
7.55257
7.45536
7.35808
7.26074
7.16335
7.06591
6.96844
6.87095
6.77343
6.67591
6.57838
6.48085
6.38334
6.28583
6.18835
6.09089
5.99347
5.89608
5.79875
5.70146
5.60424
5.50709
5.41001
5.313
5.21607
5.11924
5.0225
4.92586
4.82933
4.73292
4.63664
4.5405
4.44451
4.34868
4.25304
4.15758
4.06233
3.9673
3.87251
3.77797
3.68371
3.58973
3.49607
3.40274
3.30976
3.21716
3.12497
3.0332
2.94188
2.85104
2.76072
2.67092
2.5817
2.49306
2.40506
2.31771
2.23105
2.14509
2.05987
1.97541
1.89171
1.8088
1.72669
1.64537
1.56488
1.48522
1.40629
1.3277
1.24941
1.17227
1.09594
1.01968
0.942677
0.864723
0.786431
0.705415
0.605597
0.42208
0.663901
0.222357
0.33235
0.518277
0.619785
0.703233
0.782293
0.860352
0.937503
1.01426
1.0902
1.16671
1.24369
1.3213
1.39963
1.47874
1.55868
1.63944
1.72102
1.80339
1.8865
1.97033
2.05484
2.14003
2.22588
2.31237
2.39951
2.48728
2.57568
2.66469
2.75429
2.84448
2.93522
3.02649
3.11827
3.21053
3.30324
3.39637
3.48989
3.58376
3.67797
3.77249
3.86728
3.96233
4.05762
4.15312
4.24881
4.34468
4.44071
4.53688
4.63319
4.72962
4.82616
4.92279
5.01952
5.11633
5.21322
5.31017
5.40719
5.50427
5.60141
5.69861
5.79585
5.89314
5.99047
6.08785
6.18526
6.28271
6.3802
6.47772
6.57526
6.67283
6.77042
6.86803
6.96564
7.06326
7.16087
7.25846
7.35603
7.45357
7.55107
7.64852
7.7459
7.8432
7.94041
8.03752
8.13451
8.23136
8.32807
8.42461
8.52097
8.61714
8.71309
8.8088
8.90425
8.99942
9.09429
9.18884
9.28304
9.37688
9.47032
9.56336
9.65597
9.74814
9.83985
9.9311
10.0219
10.1122
10.202
10.2913
10.3802
10.4686
10.5566
10.6441
10.7313
10.818
10.9043
10.9902
11.0758
11.1611
11.2459
11.3305
11.4147
11.4986
11.5822
11.6655
11.7484
11.8309
11.913
11.9947
12.0758
12.1564
12.2363
12.3154
12.3938
12.4712
12.5478
12.6234
12.6981
12.772
12.845
12.9173
12.989
13.06
13.1305
13.2005
13.2699
13.3386
13.4068
13.4742
13.5408
13.6066
13.6715
13.7355
13.7986
13.8609
13.9223
13.9828
14.0425
14.1012
14.1589
14.2155
14.2708
14.3248
14.3774
14.4284
14.4779
14.5258
14.572
14.6163
14.6589
14.6995
14.7379
14.774
14.8075
14.838
14.8656
14.891
14.9158
14.9418
14.9706
15.0027
15.0381
15.0765
15.1231
15.1846
15.2624
15.3342
15.3982
15.4542
15.5315
15.6835
15.7884
16.0796
16.044
15.8294
15.3463
15.0283
14.752
14.6116
14.5657
14.5638
14.5451
14.5382
14.62
14.8028
14.9877
15.1252
15.2029
15.1931
15.1997
15.1804
15.2446
15.239
15.304
15.1902
14.863
14.4075
13.9608
13.6723
13.5805
13.5868
13.605
13.571
13.4559
13.3801
13.3959
13.4019
13.3274
13.1859
13.0204
12.8483
12.683
12.5228
12.3676
12.2091
12.053
11.8917
11.7196
11.5324
11.329
11.1142
10.8955
10.6754
10.4483
10.2083
9.95685
9.69553
9.42723
9.15066
8.86373
8.56633
8.25552
7.92549
7.57454
7.20256
6.80886
6.39223
5.95033
5.48538
5.00187
4.50877
3.98247
3.36847
2.62081
1.85544
1.23115
0.500038
0.161701
0.0160784
1.78279
2.15665
6.89792
5.53892
13.6184
8.01932
11.6865
1.96967
0.578759
0.272337
0.316606
0.353829
0.350842
0.336918
0.322429
0.309169
0.2971
0.283876
0.269143
0.253357
0.236784
0.219566
0.201791
0.183514
0.164773
0.145606
0.126058
0.106188
0.086058
0.0657379
0.0452992
0.0248149
0.00435742
-0.0160019
-0.0361941
-0.0561532
-0.0758167
-0.0951251
-0.114022
-0.132456
-0.150379
-0.167745
-0.184515
-0.200652
-0.216124
-0.230901
-0.244957
-0.25827
-0.270821
-0.282591
-0.293568
-0.303737
-0.313091
-0.321619
-0.329316
-0.336175
-0.342193
-0.347366
-0.351691
-0.355167
-0.357792
-0.359564
-0.360484
-0.360551
-0.359766
-0.358127
-0.355634
-0.352289
-0.348091
-0.343042
-0.337143
-0.330398
-0.322809
-0.314378
-0.305112
-0.295017
-0.284102
-0.272375
-0.25985
-0.246541
-0.232465
-0.217642
-0.202098
-0.185859
-0.168958
-0.151433
-0.133325
-0.11468
-0.0955525
-0.0760002
-0.056089
-0.0358892
-0.0154757
0.00507241
0.0256737
0.0462463
0.0667107
0.086994
0.107035
0.126787
0.146216
0.165303
0.184034
0.202393
0.220331
0.237734
0.254634
0.270993
0.28641
0.300732
0.313625
0.325828
0.339754
0.356318
0.381875