/*--------------------------------*- C++ -*----------------------------------*\
| =========                 |                                                 |
| \\      /  F ield         | OpenFOAM: The Open Source CFD Toolbox           |
|  \\    /   O peration     | Version:  2.2.1                                 |
|   \\  /    A nd           | Web:      www.OpenFOAM.org                      |
|    \\/     M anipulation  |                                                 |
\*---------------------------------------------------------------------------*/
FoamFile
{
    version     2.0;
    format      ascii;
    class       surfaceScalarField;
    location    "4e-05";
    object      phi;
}
// * * * * * * * * * * * * * * * * * * * * * * * * * * * * * * * * * * * * * //

dimensions      [0 3 -1 0 0 0 0];

internalField   nonuniform List<scalar> 
44563
(
-5.04478e-13
-2.15356e-13
-4.39894e-13
-6.45835e-14
-3.72008e-13
-6.78861e-14
-3.64394e-13
-7.61396e-15
-3.66654e-13
2.26036e-15
-3.95767e-13
2.91123e-14
-4.32863e-13
3.70968e-14
-3.75695e-13
-5.71686e-14
-3.49518e-13
-2.61767e-14
-2.03172e-13
-1.46346e-13
-2.13876e-13
1.07033e-14
-1.46165e-13
-6.77104e-14
-1.0377e-13
-4.23954e-14
-1.68779e-13
6.50091e-14
-7.78396e-14
-9.09394e-14
-1.11092e-13
3.32521e-14
-8.464e-14
-2.64517e-14
-7.50551e-14
-9.58484e-15
-7.98797e-14
4.82455e-15
-6.88766e-14
-1.10031e-14
-5.95273e-14
-9.34927e-15
-5.8891e-14
-6.36268e-16
-5.73564e-14
-1.53462e-15
-5.61945e-14
-1.1619e-15
-5.3443e-14
-2.75153e-15
-4.95917e-14
-3.85129e-15
-4.61296e-14
-3.46208e-15
-4.44e-14
-1.72963e-15
-4.32973e-14
-1.10269e-15
-4.22934e-14
-1.00384e-15
-4.14324e-14
-8.61081e-16
-4.07849e-14
-6.47427e-16
-4.03961e-14
-3.88814e-16
-4.02978e-14
-9.83109e-17
-4.09593e-14
6.6152e-16
-4.00799e-14
-8.79434e-16
-3.85321e-14
-1.54783e-15
-3.72936e-14
-1.23849e-15
-3.73307e-14
3.7096e-17
-3.7675e-14
3.44333e-16
-3.77403e-14
6.52948e-17
-3.67155e-14
-1.02477e-15
-3.55192e-14
-1.19637e-15
-3.47541e-14
-7.65048e-16
-3.44784e-14
-2.75747e-16
-3.40658e-14
-4.12564e-16
-3.32812e-14
-7.84574e-16
-3.23389e-14
-9.42299e-16
-3.10412e-14
-1.29771e-15
-2.97255e-14
-1.31566e-15
-2.80454e-14
-1.68014e-15
-2.71494e-14
-8.9598e-16
-2.6851e-14
-2.9848e-16
-2.80175e-14
1.16654e-15
-2.67803e-14
-1.23716e-15
-2.56784e-14
-1.10197e-15
-2.33548e-14
-2.3236e-15
-2.50321e-14
1.67731e-15
-2.99285e-14
4.89638e-15
-2.94059e-14
-5.22549e-16
-2.59602e-14
-3.44572e-15
-2.28145e-14
-3.14567e-15
-2.01299e-14
-2.68467e-15
-1.86687e-14
-1.46116e-15
-1.93721e-14
7.03446e-16
-1.6996e-14
-2.37611e-15
-2.14346e-14
4.43857e-15
-2.79404e-14
6.50583e-15
-2.63473e-14
-1.59311e-15
-3.22711e-14
5.92379e-15
-2.87942e-14
-3.47692e-15
-3.15084e-14
2.71419e-15
-2.84423e-14
-3.06613e-15
-2.84622e-14
1.99004e-17
-2.61249e-14
-2.33722e-15
-2.55082e-14
-6.16694e-16
-2.20035e-14
-3.50475e-15
-2.03979e-14
-1.60562e-15
-2.41479e-14
3.75005e-15
-2.61715e-14
2.02354e-15
-2.46946e-14
-1.47689e-15
-2.18091e-14
-2.8855e-15
-2.02178e-14
-1.5913e-15
-1.86341e-14
-1.58368e-15
-1.84642e-14
-1.69954e-16
-1.45685e-14
-3.89567e-15
-2.35358e-14
8.96729e-15
-1.2542e-14
-1.09938e-14
-2.42636e-14
1.17216e-14
-1.7916e-14
-6.34763e-15
-2.60165e-14
8.10056e-15
-2.41932e-14
-1.8233e-15
-2.48704e-14
6.77172e-16
-2.63076e-14
1.43715e-15
-2.6922e-14
6.1441e-16
-2.73487e-14
4.2674e-16
-2.61124e-14
-1.23634e-15
-2.48859e-14
-1.22647e-15
-2.39266e-14
-9.59331e-16
-2.31748e-14
-7.51763e-16
-2.23437e-14
-8.31065e-16
-2.15126e-14
-8.31095e-16
-2.07227e-14
-7.89909e-16
-2.00654e-14
-6.57363e-16
-1.9556e-14
-5.09357e-16
-1.91839e-14
-3.72085e-16
-1.89052e-14
-2.78689e-16
-1.86763e-14
-2.28962e-16
-1.84704e-14
-2.05855e-16
-1.82757e-14
-1.94707e-16
-1.80879e-14
-1.87817e-16
-1.79053e-14
-1.82599e-16
-1.7727e-14
-1.78287e-16
-1.75525e-14
-1.74555e-16
-1.73812e-14
-1.71242e-16
-1.7213e-14
-1.68249e-16
-1.70475e-14
-1.65503e-16
-1.68845e-14
-1.62946e-16
-1.6724e-14
-1.60534e-16
-1.65658e-14
-1.58231e-16
-1.64097e-14
-1.56012e-16
-1.62559e-14
-1.53863e-16
-1.61041e-14
-1.51774e-16
-1.59544e-14
-1.49744e-16
-1.58066e-14
-1.4777e-16
-1.56607e-14
-1.45847e-16
-1.55168e-14
-1.4397e-16
-1.53746e-14
-1.4213e-16
-1.52343e-14
-1.4032e-16
-1.50958e-14
-1.38534e-16
-1.4959e-14
-1.3677e-16
-1.4824e-14
-1.35031e-16
-1.46907e-14
-1.33317e-16
-1.4559e-14
-1.31635e-16
-1.44291e-14
-1.29986e-16
-1.43007e-14
-1.28368e-16
-1.41739e-14
-1.26782e-16
-1.40487e-14
-1.25224e-16
-1.3925e-14
-1.23691e-16
-1.38028e-14
-1.22179e-16
-1.36821e-14
-1.20687e-16
-1.35629e-14
-1.19213e-16
-1.34452e-14
-1.17757e-16
-1.33288e-14
-1.1632e-16
-1.32139e-14
-1.14903e-16
-1.31004e-14
-1.13508e-16
-1.29883e-14
-1.12135e-16
-1.28775e-14
-1.10784e-16
-1.2768e-14
-1.09455e-16
-1.26599e-14
-1.08146e-16
-1.2553e-14
-1.06859e-16
-1.24474e-14
-1.05588e-16
-1.23431e-14
-1.04334e-16
-1.224e-14
-1.03095e-16
-1.21382e-14
-1.01868e-16
-1.20375e-14
-1.00657e-16
-1.1938e-14
-9.94605e-17
-1.18398e-14
-9.82799e-17
-1.17426e-14
-9.71168e-17
-1.16467e-14
-9.59714e-17
-1.15518e-14
-9.48432e-17
-1.14581e-14
-9.37321e-17
-1.13655e-14
-9.26387e-17
-1.12739e-14
-9.15625e-17
-1.11834e-14
-9.05062e-17
-1.10939e-14
-8.94677e-17
-1.10055e-14
-8.84473e-17
-1.0918e-14
-8.74433e-17
-1.08316e-14
-8.64552e-17
-1.07461e-14
-8.5483e-17
-1.06616e-14
-8.45259e-17
-1.0578e-14
-8.35828e-17
-1.04953e-14
-8.26534e-17
-1.04136e-14
-8.17363e-17
-1.03328e-14
-8.08303e-17
-1.02528e-14
-7.99352e-17
-1.01738e-14
-7.90516e-17
-1.00956e-14
-7.8178e-17
-1.00183e-14
-7.73162e-17
-9.94181e-15
-7.64643e-17
-9.86619e-15
-7.56226e-17
-9.7914e-15
-7.47906e-17
-9.71743e-15
-7.39679e-17
-9.64428e-15
-7.31553e-17
-9.57193e-15
-7.2353e-17
-9.50037e-15
-7.15597e-17
-9.42959e-15
-7.07758e-17
-9.35959e-15
-7.0001e-17
-9.29036e-15
-6.92349e-17
-9.22188e-15
-6.84777e-17
-9.15415e-15
-6.773e-17
-9.08715e-15
-6.69921e-17
-9.02089e-15
-6.62624e-17
-8.95535e-15
-6.55427e-17
-8.89052e-15
-6.48303e-17
-8.8264e-15
-6.4125e-17
-8.76297e-15
-6.34259e-17
-8.70024e-15
-6.27333e-17
-8.63819e-15
-6.20476e-17
-8.57682e-15
-6.13685e-17
-8.51613e-15
-6.06948e-17
-8.4561e-15
-6.0026e-17
-8.39674e-15
-5.93619e-17
-8.33804e-15
-5.8702e-17
-8.27999e-15
-5.80454e-17
-8.2226e-15
-5.73922e-17
-8.16586e-15
-5.67414e-17
-8.10976e-15
-5.60949e-17
-8.05431e-15
-5.54497e-17
-7.99951e-15
-5.48059e-17
-7.94534e-15
-5.41636e-17
-7.89182e-15
-5.35218e-17
-7.83894e-15
-5.28807e-17
-7.7867e-15
-5.22394e-17
-7.7351e-15
-5.1598e-17
-7.68415e-15
-5.09552e-17
-7.63383e-15
-5.03102e-17
-7.58417e-15
-4.96631e-17
-7.53516e-15
-4.90143e-17
-7.48679e-15
-4.83635e-17
-7.43908e-15
-4.77098e-17
-7.39203e-15
-4.70546e-17
-7.34563e-15
-4.63954e-17
-7.2999e-15
-4.57317e-17
-7.25484e-15
-4.50634e-17
-7.21045e-15
-4.43911e-17
-7.16673e-15
-4.37154e-17
-7.12369e-15
-4.30356e-17
-7.08134e-15
-4.23514e-17
-7.03968e-15
-4.16626e-17
-6.99871e-15
-4.09696e-17
-6.95844e-15
-4.02725e-17
-6.91886e-15
-3.95717e-17
-6.88e-15
-3.88684e-17
-6.84183e-15
-3.81629e-17
-6.80438e-15
-3.74568e-17
-6.76763e-15
-3.67492e-17
-6.73158e-15
-3.60419e-17
-6.69625e-15
-3.5336e-17
-6.66161e-15
-3.4633e-17
-6.62768e-15
-3.39352e-17
-6.59443e-15
-3.32446e-17
-6.56187e-15
-3.25628e-17
-6.52998e-15
-3.18918e-17
-6.49874e-15
-3.12343e-17
-6.46815e-15
-3.05938e-17
-6.43817e-15
-2.99741e-17
-6.4088e-15
-2.9379e-17
-6.37998e-15
-2.8813e-17
-6.3517e-15
-2.82809e-17
-6.32391e-15
-2.77907e-17
-6.29656e-15
-2.73482e-17
-6.2696e-15
-2.69639e-17
-6.24295e-15
-2.66501e-17
-6.21653e-15
-2.64205e-17
-6.19023e-15
-2.62907e-17
-6.16396e-15
-2.62781e-17
-6.13756e-15
-2.64012e-17
-6.11088e-15
-2.66795e-17
-6.08375e-15
-2.71324e-17
-6.05597e-15
-2.77812e-17
-6.02732e-15
-2.86511e-17
-5.99754e-15
-2.97745e-17
-5.96635e-15
-3.11946e-17
-5.93338e-15
-3.29678e-17
-5.89822e-15
-3.51611e-17
-5.86038e-15
-3.78422e-17
-5.81932e-15
-4.10581e-17
-5.7745e-15
-4.48197e-17
-5.72538e-15
-4.91173e-17
-5.67143e-15
-5.39544e-17
-5.6121e-15
-5.93252e-17
-5.54657e-15
-6.55261e-17
-5.47335e-15
-7.32218e-17
-5.38913e-15
-8.42178e-17
-5.28428e-15
-1.0485e-16
-5.13259e-15
-1.51693e-16
-4.91337e-15
-2.19217e-16
-4.62809e-15
-2.85286e-16
-4.31339e-15
-3.14696e-16
-4.06047e-15
-2.52924e-16
-3.84209e-15
-2.18377e-16
-3.59368e-15
-2.48411e-16
-3.2294e-15
-3.64282e-16
-6.15462e-16
3.19244e-15
-5.89617e-16
3.54435e-15
-3.51908e-16
3.81833e-15
-2.73985e-16
4.09746e-15
-2.79128e-16
4.41471e-15
-3.17253e-16
4.69707e-15
-2.82354e-16
4.92681e-15
-2.29738e-16
5.10361e-15
-1.76802e-16
5.24104e-15
-1.3743e-16
5.35142e-15
-1.10383e-16
5.44322e-15
-9.17962e-17
5.5222e-15
-7.89746e-17
5.59146e-15
-6.92626e-17
5.65277e-15
-6.13115e-17
5.70748e-15
-5.47074e-17
5.75663e-15
-4.9159e-17
5.80116e-15
-4.45267e-17
5.84189e-15
-4.07263e-17
5.87957e-15
-3.76813e-17
5.91486e-15
-3.52906e-17
5.94829e-15
-3.34367e-17
5.98029e-15
-3.19961e-17
6.01114e-15
-3.08553e-17
6.04106e-15
-2.99225e-17
6.0702e-15
-2.9132e-17
6.09864e-15
-2.84422e-17
6.12647e-15
-2.78362e-17
6.15379e-15
-2.73112e-17
6.18066e-15
-2.6878e-17
6.20721e-15
-2.65486e-17
6.23355e-15
-2.63382e-17
6.25981e-15
-2.62564e-17
6.28612e-15
-2.63086e-17
6.31261e-15
-2.6494e-17
6.33942e-15
-2.68061e-17
6.36665e-15
-2.72338e-17
6.39442e-15
-2.77648e-17
6.4228e-15
-2.83819e-17
6.45187e-15
-2.90694e-17
6.48168e-15
-2.98112e-17
6.51227e-15
-3.05926e-17
6.54367e-15
-3.14005e-17
6.5759e-15
-3.22235e-17
6.60895e-15
-3.30524e-17
6.64283e-15
-3.38798e-17
6.67753e-15
-3.47001e-17
6.71304e-15
-3.55101e-17
6.74935e-15
-3.63068e-17
6.78644e-15
-3.7089e-17
6.82429e-15
-3.78561e-17
6.8629e-15
-3.86078e-17
6.90224e-15
-3.93463e-17
6.94231e-15
-4.0071e-17
6.9831e-15
-4.07833e-17
7.02458e-15
-4.14843e-17
7.06676e-15
-4.2175e-17
7.10961e-15
-4.28566e-17
7.15314e-15
-4.35302e-17
7.19734e-15
-4.41966e-17
7.2422e-15
-4.48564e-17
7.28771e-15
-4.55104e-17
7.33387e-15
-4.61595e-17
7.38067e-15
-4.68041e-17
7.42812e-15
-4.74447e-17
7.4762e-15
-4.80812e-17
7.52491e-15
-4.87159e-17
7.57426e-15
-4.93473e-17
7.62424e-15
-4.99766e-17
7.67484e-15
-5.06041e-17
7.72607e-15
-5.12306e-17
7.77793e-15
-5.18564e-17
7.83041e-15
-5.24819e-17
7.88352e-15
-5.31079e-17
7.93726e-15
-5.37346e-17
7.99162e-15
-5.4363e-17
8.04662e-15
-5.49931e-17
8.10224e-15
-5.56257e-17
8.1585e-15
-5.6261e-17
8.2154e-15
-5.68987e-17
8.27294e-15
-5.75417e-17
8.33113e-15
-5.8188e-17
8.38997e-15
-5.88386e-17
8.44946e-15
-5.94939e-17
8.50962e-15
-6.01545e-17
8.57044e-15
-6.08208e-17
8.63193e-15
-6.14933e-17
8.69411e-15
-6.21722e-17
8.75696e-15
-6.28579e-17
8.82051e-15
-6.35506e-17
8.88476e-15
-6.42507e-17
8.94972e-15
-6.49585e-17
9.0154e-15
-6.56744e-17
9.0818e-15
-6.63979e-17
9.14893e-15
-6.71318e-17
9.2168e-15
-6.78736e-17
9.28543e-15
-6.86246e-17
9.35481e-15
-6.93853e-17
9.42497e-15
-7.01559e-17
9.4959e-15
-7.09363e-17
9.56763e-15
-7.1726e-17
9.64015e-15
-7.25254e-17
9.71349e-15
-7.33345e-17
9.78764e-15
-7.4154e-17
9.86263e-15
-7.49836e-17
9.93845e-15
-7.58224e-17
1.00151e-14
-7.6671e-17
1.00926e-14
-7.75293e-17
1.0171e-14
-7.8397e-17
1.02503e-14
-7.92757e-17
1.03305e-14
-8.01631e-17
1.04115e-14
-8.10604e-17
1.04935e-14
-8.19684e-17
1.05764e-14
-8.28873e-17
1.06602e-14
-8.38171e-17
1.0745e-14
-8.47586e-17
1.08307e-14
-8.57124e-17
1.09174e-14
-8.66788e-17
1.1005e-14
-8.7658e-17
1.10937e-14
-8.86509e-17
1.11833e-14
-8.96586e-17
1.1274e-14
-9.06812e-17
1.13657e-14
-9.17181e-17
1.14585e-14
-9.27732e-17
1.15524e-14
-9.38444e-17
1.16473e-14
-9.49332e-17
1.17433e-14
-9.604e-17
1.18405e-14
-9.71656e-17
1.19388e-14
-9.8311e-17
1.20383e-14
-9.94769e-17
1.21389e-14
-1.00663e-16
1.22408e-14
-1.0187e-16
1.23439e-14
-1.03098e-16
1.24483e-14
-1.04348e-16
1.25539e-14
-1.05619e-16
1.26608e-14
-1.0691e-16
1.2769e-14
-1.08218e-16
1.28785e-14
-1.09544e-16
1.29894e-14
-1.10884e-16
1.31017e-14
-1.12238e-16
1.32153e-14
-1.13605e-16
1.33303e-14
-1.14984e-16
1.34466e-14
-1.16377e-16
1.35644e-14
-1.17783e-16
1.36836e-14
-1.19206e-16
1.38043e-14
-1.20649e-16
1.39264e-14
-1.22115e-16
1.405e-14
-1.23608e-16
1.41751e-14
-1.25129e-16
1.43018e-14
-1.26681e-16
1.44301e-14
-1.28265e-16
1.45599e-14
-1.29878e-16
1.46915e-14
-1.31521e-16
1.48247e-14
-1.3319e-16
1.49595e-14
-1.34884e-16
1.50961e-14
-1.36602e-16
1.52345e-14
-1.38344e-16
1.53746e-14
-1.40113e-16
1.55165e-14
-1.41912e-16
1.56603e-14
-1.43746e-16
1.58059e-14
-1.45621e-16
1.59534e-14
-1.47542e-16
1.61029e-14
-1.49515e-16
1.62545e-14
-1.51547e-16
1.64081e-14
-1.53641e-16
1.65639e-14
-1.55803e-16
1.6722e-14
-1.58043e-16
1.68823e-14
-1.60372e-16
1.70451e-14
-1.62807e-16
1.72105e-14
-1.65376e-16
1.73786e-14
-1.68114e-16
1.75497e-14
-1.71073e-16
1.7724e-14
-1.74323e-16
1.7902e-14
-1.77972e-16
1.80842e-14
-1.82193e-16
1.82715e-14
-1.87319e-16
1.84656e-14
-1.9412e-16
1.86708e-14
-2.05153e-16
1.88989e-14
-2.28061e-16
1.91763e-14
-2.77452e-16
1.95467e-14
-3.704e-16
2.0054e-14
-5.07271e-16
2.07093e-14
-6.55331e-16
2.14979e-14
-7.88544e-16
2.23291e-14
-8.31271e-16
2.3161e-14
-8.3184e-16
2.3908e-14
-7.46992e-16
2.48534e-14
-9.45417e-16
2.60734e-14
-1.22005e-15
2.73293e-14
-1.25591e-15
2.69566e-14
3.72787e-16
2.63345e-14
6.22104e-16
2.48851e-14
1.44936e-15
2.42134e-14
6.71696e-16
2.59365e-14
-1.72314e-15
1.82288e-14
7.70774e-15
2.41879e-14
-5.95909e-15
1.29722e-14
1.12157e-14
2.27491e-14
-9.77691e-15
1.50171e-14
7.73201e-15
1.84419e-14
-3.42488e-15
1.87619e-14
-3.19952e-16
2.03399e-14
-1.57802e-15
2.1906e-14
-1.56603e-15
2.48409e-14
-2.93495e-15
2.63952e-14
-1.55425e-15
2.42265e-14
2.16869e-15
2.02812e-14
3.94529e-15
2.20566e-14
-1.77546e-15
2.56943e-14
-3.63761e-15
2.62477e-14
-5.5343e-16
2.84623e-14
-2.21465e-15
2.81786e-14
2.83761e-16
3.12132e-14
-3.03463e-15
2.83049e-14
2.9083e-15
3.20137e-14
-3.70877e-15
2.57077e-14
6.30596e-15
2.76324e-14
-1.92472e-15
2.06956e-14
6.93688e-15
1.83751e-14
2.32044e-15
1.88571e-14
-4.81946e-16
1.86001e-14
2.56999e-16
1.99513e-14
-1.35125e-15
2.29644e-14
-3.01313e-15
2.61942e-14
-3.22978e-15
2.96149e-14
-3.42067e-15
3.01693e-14
-5.54382e-16
2.51155e-14
5.05377e-15
2.28697e-14
2.24577e-15
2.50074e-14
-2.13767e-15
2.66839e-14
-1.67646e-15
2.70301e-14
-3.46268e-16
2.70745e-14
-4.44165e-17
2.78656e-14
-7.9108e-16
2.87188e-14
-8.53166e-16
3.02097e-14
-1.4909e-15
3.13396e-14
-1.12995e-15
3.24277e-14
-1.08806e-15
3.30034e-14
-5.75696e-16
3.41067e-14
-1.10333e-15
3.47538e-14
-6.47115e-16
3.5141e-14
-3.87115e-16
3.53195e-14
-1.78581e-16
3.53498e-14
-3.02531e-17
3.56256e-14
-2.7583e-16
3.63703e-14
-7.44679e-16
3.73707e-14
-1.0004e-15
3.80864e-14
-7.15644e-16
3.84876e-14
-4.01298e-16
3.90443e-14
-5.56646e-16
3.97245e-14
-6.80175e-16
4.06489e-14
-9.24397e-16
4.15513e-14
-9.02393e-16
4.23977e-14
-8.46476e-16
4.33444e-14
-9.46679e-16
4.42304e-14
-8.85937e-16
4.49005e-14
-6.70162e-16
4.56805e-14
-7.7996e-16
4.6681e-14
-1.00058e-15
4.79184e-14
-1.23735e-15
4.94345e-14
-1.51614e-15
5.12656e-14
-1.83104e-15
5.38333e-14
-2.56775e-15
5.70385e-14
-3.20514e-15
6.13171e-14
-4.27864e-15
6.58007e-14
-4.48355e-15
6.9177e-14
-3.37634e-15
6.97522e-14
-5.75208e-16
7.90513e-14
-9.29906e-15
1.02246e-13
-2.3195e-14
9.88251e-14
3.42118e-15
1.18858e-13
-2.00324e-14
1.16463e-13
2.39481e-15
2.13716e-13
-9.72531e-14
6.59812e-14
1.47735e-13
1.81856e-13
-1.15874e-13
-3.22717e-14
2.14127e-13
1.13724e-13
-1.45996e-13
6.8888e-15
1.06835e-13
1.95293e-13
-1.88404e-13
1.79563e-13
1.57299e-14
4.04751e-13
-2.25188e-13
4.13004e-13
-8.25233e-15
7.20675e-13
-3.07671e-13
7.61635e-13
-4.09601e-14
-4.29799e-13
-1.30633e-15
1.12004e-14
-1.77659e-15
2.02969e-14
-1.85375e-15
3.02003e-14
-1.44546e-15
4.07612e-14
-7.25763e-16
5.20983e-14
-6.57662e-17
6.43931e-14
3.87796e-16
7.733e-14
6.55212e-16
9.06299e-14
7.98729e-16
1.04168e-13
8.71511e-16
1.17889e-13
9.08993e-16
1.31751e-13
9.32151e-16
1.45714e-13
9.51987e-16
1.59739e-13
9.73063e-16
1.73786e-13
9.96381e-16
1.87815e-13
1.02133e-15
2.01788e-13
1.04679e-15
2.15664e-13
1.07165e-15
2.29408e-13
1.09498e-15
2.42985e-13
1.11609e-15
2.56363e-13
1.1345e-15
2.69512e-13
1.14985e-15
2.82407e-13
1.16193e-15
2.95024e-13
1.17058e-15
3.07341e-13
1.17574e-15
3.19339e-13
1.17737e-15
3.31003e-13
1.1755e-15
3.42317e-13
1.17018e-15
3.53271e-13
1.16148e-15
3.63853e-13
1.14952e-15
3.74057e-13
1.1344e-15
3.83876e-13
1.11626e-15
3.93306e-13
1.09526e-15
4.02344e-13
1.07153e-15
4.10989e-13
1.04524e-15
4.19242e-13
1.01654e-15
4.27103e-13
9.85601e-16
4.34574e-13
9.52577e-16
4.41661e-13
9.17625e-16
4.48365e-13
8.80899e-16
4.54694e-13
8.42548e-16
4.60651e-13
8.02714e-16
4.66244e-13
7.61535e-16
4.71477e-13
7.1914e-16
4.76359e-13
6.75653e-16
4.80895e-13
6.31188e-16
4.85092e-13
5.85854e-16
4.88958e-13
5.39751e-16
4.92498e-13
4.92971e-16
4.95719e-13
4.45602e-16
4.98626e-13
3.97721e-16
5.01226e-13
3.49401e-16
5.03524e-13
3.00709e-16
5.05525e-13
2.51707e-16
5.07233e-13
2.0245e-16
5.08651e-13
1.52992e-16
5.09783e-13
1.03381e-16
5.10632e-13
5.36639e-17
5.11199e-13
3.88413e-18
5.11486e-13
-4.59152e-17
5.11493e-13
-9.56913e-17
5.11221e-13
-1.45402e-16
5.10667e-13
-1.95002e-16
5.09832e-13
-2.44447e-16
5.08713e-13
-2.93688e-16
5.07307e-13
-3.42673e-16
5.05611e-13
-3.91344e-16
5.03621e-13
-4.3964e-16
5.01333e-13
-4.87493e-16
4.98741e-13
-5.34826e-16
4.9584e-13
-5.81557e-16
4.92624e-13
-6.27594e-16
4.89087e-13
-6.72833e-16
4.85222e-13
-7.17164e-16
4.81023e-13
-7.60462e-16
4.76482e-13
-8.02595e-16
4.71593e-13
-8.43415e-16
4.66349e-13
-8.82765e-16
4.60744e-13
-9.20478e-16
4.5477e-13
-9.56376e-16
4.48423e-13
-9.90272e-16
4.41697e-13
-1.02197e-15
4.34586e-13
-1.05129e-15
4.27088e-13
-1.07801e-15
4.19199e-13
-1.10196e-15
4.10917e-13
-1.12296e-15
4.02242e-13
-1.14083e-15
3.93174e-13
-1.15544e-15
3.83714e-13
-1.16667e-15
3.73867e-13
-1.17444e-15
3.63637e-13
-1.1787e-15
3.53031e-13
-1.17944e-15
3.42057e-13
-1.17668e-15
3.30725e-13
-1.17046e-15
3.19046e-13
-1.16083e-15
3.07035e-13
-1.14785e-15
2.94708e-13
-1.13155e-15
2.82082e-13
-1.11196e-15
2.69178e-13
-1.0891e-15
2.56019e-13
-1.06299e-15
2.42633e-13
-1.03367e-15
2.29046e-13
-1.00125e-15
2.15292e-13
-9.66224e-16
2.01406e-13
-9.29427e-16
1.87426e-13
-8.91266e-16
1.73392e-13
-8.61914e-16
1.59355e-13
-8.54898e-16
1.45365e-13
-9.21228e-16
1.31503e-13
-1.09474e-15
1.17802e-13
-1.36444e-15
1.04269e-13
-1.57267e-15
9.08145e-14
-1.6168e-15
7.75528e-14
-1.17685e-15
6.43465e-14
1.69719e-17
5.13966e-14
1.10363e-15
3.99568e-14
1.47796e-15
2.96646e-14
1.21457e-15
2.00278e-14
1.10951e-14
-7.39968e-13
-4.94462e-13
-5.86796e-13
-5.87543e-13
-5.42705e-13
-5.94673e-13
-4.63906e-13
-6.59281e-13
-3.87322e-13
-7.22839e-13
-3.23937e-13
-7.88151e-13
-2.70939e-13
-8.52819e-13
-2.25796e-13
-9.13213e-13
-1.87003e-13
-9.68374e-13
-1.53567e-13
-1.01814e-12
-1.24733e-13
-1.06254e-12
-9.97446e-14
-1.10174e-12
-7.7784e-14
-1.13592e-12
-5.81573e-14
-1.16501e-12
-4.0267e-14
-1.18896e-12
-2.35369e-14
-1.20775e-12
-7.53612e-15
-1.22126e-12
8.06702e-15
-1.22942e-12
2.35319e-14
-1.23218e-12
3.90664e-14
-1.22957e-12
5.48451e-14
-1.22163e-12
7.10222e-14
-1.20847e-12
8.78351e-14
-1.19031e-12
1.0545e-13
-1.16727e-12
1.25019e-13
-1.14057e-12
1.476e-13
-1.11042e-12
1.73168e-13
-1.07614e-12
2.00966e-13
-1.03754e-12
2.30424e-13
-9.95643e-13
2.61048e-13
-9.51753e-13
2.927e-13
-9.08136e-13
3.26717e-13
-8.69604e-13
3.63424e-13
-8.4255e-13
3.94248e-13
-8.33445e-13
4.1064e-13
-8.53874e-13
5.15023e-13
-9.53702e-13
2.3803e-13
-8.54921e-13
-9.31547e-13
1.15902e-14
-8.47043e-16
1.20691e-14
-7.52904e-16
1.27186e-14
-9.2862e-16
1.36762e-14
-1.2749e-15
1.45476e-14
-1.15374e-15
1.52292e-14
-9.11323e-16
1.57418e-14
-6.8941e-16
1.61399e-14
-5.35451e-16
1.6462e-14
-4.32538e-16
1.67375e-14
-3.67318e-16
1.69802e-14
-3.21671e-16
1.71967e-14
-2.85722e-16
1.73899e-14
-2.54541e-16
1.75629e-14
-2.277e-16
1.77187e-14
-2.04998e-16
1.78604e-14
-1.86173e-16
1.79905e-14
-1.70818e-16
1.81113e-14
-1.58487e-16
1.82247e-14
-1.48698e-16
1.83322e-14
-1.4096e-16
1.8435e-14
-1.34811e-16
1.8534e-14
-1.29839e-16
1.86298e-14
-1.25721e-16
1.87229e-14
-1.22221e-16
1.88136e-14
-1.19185e-16
1.89023e-14
-1.16547e-16
1.89893e-14
-1.14285e-16
1.90749e-14
-1.12425e-16
1.91593e-14
-1.11002e-16
1.9243e-14
-1.10057e-16
1.93264e-14
-1.09618e-16
1.94098e-14
-1.09693e-16
1.94936e-14
-1.10277e-16
1.95781e-14
-1.11343e-16
1.96637e-14
-1.12852e-16
1.97507e-14
-1.14751e-16
1.98393e-14
-1.16982e-16
1.99297e-14
-1.19487e-16
2.00221e-14
-1.22207e-16
2.01166e-14
-1.25088e-16
2.02133e-14
-1.28082e-16
2.03122e-14
-1.31147e-16
2.04134e-14
-1.34247e-16
2.05169e-14
-1.37356e-16
2.06227e-14
-1.40453e-16
2.07307e-14
-1.43521e-16
2.08409e-14
-1.46551e-16
2.09534e-14
-1.49536e-16
2.1068e-14
-1.52472e-16
2.11847e-14
-1.55363e-16
2.13036e-14
-1.58205e-16
2.14245e-14
-1.61003e-16
2.15475e-14
-1.6376e-16
2.16725e-14
-1.66478e-16
2.17995e-14
-1.69163e-16
2.19284e-14
-1.71817e-16
2.20593e-14
-1.74443e-16
2.21922e-14
-1.77044e-16
2.2327e-14
-1.79624e-16
2.24636e-14
-1.82184e-16
2.26022e-14
-1.84727e-16
2.27427e-14
-1.87255e-16
2.2885e-14
-1.89768e-16
2.30292e-14
-1.92271e-16
2.31752e-14
-1.94763e-16
2.33231e-14
-1.97247e-16
2.34729e-14
-1.99723e-16
2.36245e-14
-2.02195e-16
2.37779e-14
-2.04663e-16
2.39332e-14
-2.0713e-16
2.40903e-14
-2.09597e-16
2.42492e-14
-2.12065e-16
2.441e-14
-2.14537e-16
2.45727e-14
-2.17015e-16
2.47372e-14
-2.195e-16
2.49036e-14
-2.21994e-16
2.50718e-14
-2.24498e-16
2.52419e-14
-2.27016e-16
2.54139e-14
-2.29547e-16
2.55878e-14
-2.32094e-16
2.57637e-14
-2.34658e-16
2.59414e-14
-2.37241e-16
2.61211e-14
-2.39844e-16
2.63027e-14
-2.42469e-16
2.64864e-14
-2.45117e-16
2.6672e-14
-2.4779e-16
2.68596e-14
-2.50489e-16
2.70493e-14
-2.53215e-16
2.7241e-14
-2.5597e-16
2.74348e-14
-2.58755e-16
2.76307e-14
-2.6157e-16
2.78287e-14
-2.64417e-16
2.80289e-14
-2.67299e-16
2.82312e-14
-2.70215e-16
2.84358e-14
-2.73166e-16
2.86425e-14
-2.76153e-16
2.88516e-14
-2.79178e-16
2.90629e-14
-2.8224e-16
2.92765e-14
-2.8534e-16
2.94924e-14
-2.88479e-16
2.97108e-14
-2.91657e-16
2.99315e-14
-2.94874e-16
3.01546e-14
-2.98132e-16
3.03802e-14
-3.01428e-16
3.06083e-14
-3.04766e-16
3.08389e-14
-3.08142e-16
3.10721e-14
-3.11564e-16
3.13078e-14
-3.15025e-16
3.15462e-14
-3.18528e-16
3.17872e-14
-3.22074e-16
3.20309e-14
-3.25664e-16
3.22773e-14
-3.29299e-16
3.25265e-14
-3.32981e-16
3.27784e-14
-3.3671e-16
3.30332e-14
-3.40489e-16
3.32909e-14
-3.44318e-16
3.35514e-14
-3.482e-16
3.38149e-14
-3.52135e-16
3.40814e-14
-3.56127e-16
3.43509e-14
-3.60175e-16
3.46234e-14
-3.64287e-16
3.48991e-14
-3.68459e-16
3.5178e-14
-3.72695e-16
3.546e-14
-3.76995e-16
3.57453e-14
-3.81363e-16
3.6034e-14
-3.85799e-16
3.6326e-14
-3.90305e-16
3.66214e-14
-3.94881e-16
3.69202e-14
-3.99529e-16
3.72226e-14
-4.0425e-16
3.75286e-14
-4.09044e-16
3.78381e-14
-4.13911e-16
3.81514e-14
-4.18852e-16
3.84683e-14
-4.23866e-16
3.8789e-14
-4.28951e-16
3.91136e-14
-4.34107e-16
3.94421e-14
-4.39334e-16
3.97744e-14
-4.44631e-16
4.01108e-14
-4.49997e-16
4.04513e-14
-4.55434e-16
4.07959e-14
-4.60942e-16
4.11446e-14
-4.66524e-16
4.14976e-14
-4.72184e-16
4.18548e-14
-4.77924e-16
4.22165e-14
-4.83749e-16
4.25825e-14
-4.89664e-16
4.29531e-14
-4.95672e-16
4.33282e-14
-5.01776e-16
4.37079e-14
-5.07978e-16
4.40923e-14
-5.14281e-16
4.44815e-14
-5.20687e-16
4.48755e-14
-5.27194e-16
4.52744e-14
-5.33807e-16
4.56783e-14
-5.40527e-16
4.60873e-14
-5.47358e-16
4.65015e-14
-5.54307e-16
4.6921e-14
-5.61383e-16
4.73458e-14
-5.68596e-16
4.77762e-14
-5.75959e-16
4.82121e-14
-5.83486e-16
4.86538e-14
-5.91195e-16
4.91014e-14
-5.99106e-16
4.9555e-14
-6.07243e-16
5.00148e-14
-6.15639e-16
5.04811e-14
-6.24333e-16
5.09541e-14
-6.33383e-16
5.14342e-14
-6.42865e-16
5.19217e-14
-6.52887e-16
5.24171e-14
-6.63598e-16
5.29213e-14
-6.75214e-16
5.3435e-14
-6.88054e-16
5.39597e-14
-7.02609e-16
5.44971e-14
-7.1968e-16
5.50505e-14
-7.40671e-16
5.56247e-14
-7.68297e-16
5.62277e-14
-8.0813e-16
5.687e-14
-8.70445e-16
5.75619e-14
-9.69353e-16
5.83066e-14
-1.11505e-15
5.9099e-14
-1.29967e-15
5.9936e-14
-1.49232e-15
6.07975e-14
-1.65007e-15
6.16988e-14
-1.73255e-15
6.26141e-14
-1.74717e-15
6.36163e-14
-1.74916e-15
6.45173e-14
-1.84645e-15
6.51833e-14
-1.88605e-15
6.53751e-14
-1.44768e-15
6.61072e-14
-3.5934e-16
6.63254e-14
4.03854e-16
6.7017e-14
7.57818e-16
6.74758e-14
2.12876e-16
6.55951e-14
1.57594e-16
7.00137e-14
3.28916e-15
6.54032e-14
-1.34862e-15
6.66284e-14
9.99049e-15
4.72362e-14
9.61527e-15
4.75386e-14
7.42962e-15
4.94381e-14
-5.3243e-15
5.18991e-14
-2.78099e-15
5.75901e-14
-7.26907e-15
6.35797e-14
-7.55557e-15
6.79662e-14
-7.3215e-15
7.15158e-14
-5.10385e-15
7.70502e-14
-3.36566e-15
8.4014e-14
-3.01848e-15
8.4888e-14
-2.64947e-15
8.23294e-14
-1.07901e-15
8.09764e-14
7.99545e-16
7.84576e-14
3.04145e-16
7.90061e-14
-2.64722e-16
7.69257e-14
-9.54289e-16
7.92605e-14
5.73509e-16
7.58848e-14
-3.33065e-16
7.85054e-14
3.6854e-15
7.49528e-14
1.62792e-15
7.42922e-14
7.5974e-15
6.79559e-14
8.65676e-15
6.30271e-14
4.44685e-15
6.48401e-14
-1.55601e-15
7.06561e-14
-7.16717e-15
7.73074e-14
-9.66445e-15
8.18792e-14
-7.80163e-15
8.38454e-14
-5.38682e-15
8.56581e-14
-2.36715e-15
9.03939e-14
3.18032e-16
9.42394e-14
-1.59974e-15
9.51891e-14
-3.0874e-15
9.48593e-14
-1.34659e-15
9.44352e-14
7.78158e-17
9.45425e-14
-1.51749e-16
9.49573e-14
-1.20589e-15
9.61045e-14
-2.00036e-15
9.71614e-14
-2.54779e-15
9.87345e-14
-2.70305e-15
1.00283e-13
-2.63615e-15
1.02136e-13
-2.42939e-15
1.03455e-13
-2.42202e-15
1.04958e-13
-2.15018e-15
1.06378e-13
-1.80716e-15
1.0778e-13
-1.58069e-15
1.09304e-13
-1.55382e-15
1.10836e-13
-1.80801e-15
1.1228e-13
-2.18887e-15
1.13669e-13
-2.38896e-15
1.1524e-13
-2.2867e-15
1.16993e-13
-2.15417e-15
1.18675e-13
-2.23889e-15
1.20426e-13
-2.43182e-15
1.22143e-13
-2.64118e-15
1.23974e-13
-2.73347e-15
1.25902e-13
-2.77377e-15
1.27797e-13
-2.84239e-15
1.29753e-13
-2.84191e-15
1.319e-13
-2.81643e-15
1.34101e-13
-2.98101e-15
1.36426e-13
-3.32569e-15
1.38971e-13
-3.78211e-15
1.41809e-13
-4.35437e-15
1.45092e-13
-5.11411e-15
1.48675e-13
-6.15134e-15
1.52809e-13
-7.3386e-15
1.57066e-13
-8.53543e-15
1.61731e-13
-9.14911e-15
1.67627e-13
-9.27199e-15
1.78241e-13
-1.11889e-14
1.87358e-13
-1.84167e-14
1.88536e-13
-2.43723e-14
2.17402e-13
-2.54449e-14
2.37521e-13
-4.01519e-14
2.8121e-13
-4.12939e-14
2.51612e-13
-6.7655e-14
3.63869e-13
3.5477e-14
3.75633e-13
-1.27638e-13
3.64116e-13
2.25645e-13
5.74742e-13
-3.56623e-13
2.92767e-13
3.8881e-13
4.77439e-13
-3.73077e-13
2.57914e-13
2.35255e-13
2.07306e-13
-1.74581e-13
2.39488e-13
-4.04341e-14
2.98314e-13
-3.66497e-13
-2.37108e-13
-8.34602e-13
-1.61528e-13
-7.13405e-13
-1.89084e-13
-6.39678e-13
-8.13405e-14
-5.42549e-13
-9.48685e-14
-4.30551e-13
-8.28863e-14
-2.81279e-13
-1.12175e-13
-2.82544e-13
-5.59033e-14
-2.38313e-13
-7.04084e-14
-2.69074e-13
-1.15584e-13
-2.74117e-13
1.57458e-14
-3.47504e-13
5.67753e-15
-2.89094e-13
-1.00805e-13
-2.41388e-13
1.73031e-14
-2.59976e-13
-7.23522e-14
-2.03186e-13
-2.35373e-14
-2.0251e-13
-2.71273e-14
-1.86322e-13
-2.57729e-14
-1.67247e-13
-1.42508e-14
-1.65209e-13
-1.30414e-14
-1.62176e-13
-1.2382e-14
-1.54942e-13
-7.87019e-15
-1.50715e-13
-5.76175e-15
-1.46409e-13
-5.46777e-15
-1.42925e-13
-6.23601e-15
-1.39931e-13
-6.84462e-15
-1.3707e-13
-6.32315e-15
-1.33842e-13
-4.95736e-15
-1.31053e-13
-3.89249e-15
-1.28753e-13
-3.30326e-15
-1.26737e-13
-2.8773e-15
-1.24919e-13
-2.46505e-15
-1.23264e-13
-2.04454e-15
-1.21737e-13
-1.62486e-15
-1.19593e-13
-1.48264e-15
-1.1824e-13
-2.23247e-15
-1.17002e-13
-2.7856e-15
-1.15742e-13
-2.49872e-15
-1.14025e-13
-1.67972e-15
-1.12412e-13
-1.26824e-15
-1.1083e-13
-1.51739e-15
-1.09656e-13
-2.19902e-15
-1.08358e-13
-2.49355e-15
-1.06879e-13
-2.24415e-15
-1.05215e-13
-1.93961e-15
-1.03628e-13
-1.9997e-15
-1.02111e-13
-2.30152e-15
-1.00428e-13
-2.62558e-15
-9.87932e-14
-2.93259e-15
-9.70679e-14
-3.04091e-15
-9.59627e-14
-2.78541e-15
-9.51633e-14
-1.69539e-15
-9.52061e-14
-2.55629e-16
-9.49038e-14
8.64273e-16
-9.62731e-14
1.32068e-16
-9.58385e-14
-1.53655e-15
-9.46687e-14
-3.49336e-15
-9.08e-14
-2.19142e-15
-8.57676e-14
-1.36064e-16
-8.37271e-14
-2.56299e-15
-8.17075e-14
-5.46535e-15
-7.70218e-14
-7.83138e-15
-7.02937e-14
-9.41278e-15
-6.45384e-14
-7.21644e-15
-6.34843e-14
-3.50655e-16
-7.03677e-14
4.50732e-15
-7.44013e-14
8.47219e-15
-7.51872e-14
7.29167e-15
-7.87931e-14
2.01286e-15
-7.64172e-14
3.54791e-15
-7.96182e-14
-2.75957e-16
-7.73503e-14
4.46307e-16
-7.93177e-14
-1.09875e-15
-7.87846e-14
-5.13191e-16
-8.12085e-14
8.67017e-17
-8.24706e-14
6.45387e-16
-8.49368e-14
-1.03853e-15
-8.40249e-14
-2.51758e-15
-7.72115e-14
-3.06335e-15
-7.16808e-14
-3.50715e-15
-6.80136e-14
-5.1441e-15
-6.35577e-14
-7.34139e-15
-5.76019e-14
-7.5471e-15
-5.19339e-14
-7.25165e-15
-4.9583e-14
-2.52088e-15
-4.77397e-14
-5.73895e-15
-4.63508e-14
7.57838e-15
-6.69533e-14
9.60873e-15
-6.55159e-14
1.02842e-14
-7.03013e-14
-1.56224e-15
-6.56152e-14
3.41442e-15
-6.7577e-14
1.38514e-16
-6.70842e-14
1.84371e-16
-6.63851e-14
7.38093e-16
-6.61726e-14
4.01919e-16
-6.54143e-14
-3.31566e-16
-6.52221e-14
-1.42854e-15
-6.45609e-14
-1.88765e-15
-6.36627e-14
-1.85759e-15
-6.26567e-14
-1.75778e-15
-6.17361e-14
-1.75158e-15
-6.08313e-14
-1.73595e-15
-5.9967e-14
-1.65416e-15
-5.91274e-14
-1.49696e-15
-5.83325e-14
-1.3043e-15
-5.75854e-14
-1.11921e-15
-5.68912e-14
-9.72901e-16
-5.62467e-14
-8.73423e-16
-5.56419e-14
-8.10662e-16
-5.50661e-14
-7.7049e-16
-5.45113e-14
-7.42588e-16
-5.39726e-14
-7.21358e-16
-5.34468e-14
-7.04075e-16
-5.2932e-14
-6.89338e-16
-5.24269e-14
-6.7635e-16
-5.19305e-14
-6.64623e-16
-5.14422e-14
-6.53836e-16
-5.09614e-14
-6.43766e-16
-5.04876e-14
-6.34257e-16
-5.00207e-14
-6.2519e-16
-4.95602e-14
-6.16483e-16
-4.9106e-14
-6.08075e-16
-4.86579e-14
-5.99924e-16
-4.82156e-14
-5.91998e-16
-4.77791e-14
-5.84274e-16
-4.73482e-14
-5.76731e-16
-4.69228e-14
-5.69351e-16
-4.65028e-14
-5.62116e-16
-4.60882e-14
-5.55012e-16
-4.56787e-14
-5.48027e-16
-4.52743e-14
-5.41153e-16
-4.48749e-14
-5.34388e-16
-4.44805e-14
-5.2773e-16
-4.4091e-14
-5.21178e-16
-4.37062e-14
-5.14731e-16
-4.33262e-14
-5.08386e-16
-4.29508e-14
-5.02142e-16
-4.25801e-14
-4.95992e-16
-4.22138e-14
-4.89933e-16
-4.1852e-14
-4.83962e-16
-4.14947e-14
-4.78074e-16
-4.11416e-14
-4.72268e-16
-4.07928e-14
-4.66543e-16
-4.04482e-14
-4.60899e-16
-4.01078e-14
-4.55335e-16
-3.97715e-14
-4.49853e-16
-3.94391e-14
-4.44451e-16
-3.91108e-14
-4.39129e-16
-3.87864e-14
-4.33885e-16
-3.84658e-14
-4.28719e-16
-3.8149e-14
-4.23629e-16
-3.7836e-14
-4.18612e-16
-3.75267e-14
-4.13666e-16
-3.7221e-14
-4.0879e-16
-3.69189e-14
-4.0398e-16
-3.66203e-14
-3.9924e-16
-3.63252e-14
-3.94567e-16
-3.60335e-14
-3.89963e-16