/*--------------------------------*- C++ -*----------------------------------*\
| =========                 |                                                 |
| \\      /  F ield         | OpenFOAM: The Open Source CFD Toolbox           |
|  \\    /   O peration     | Version:  2.2.1                                 |
|   \\  /    A nd           | Web:      www.OpenFOAM.org                      |
|    \\/     M anipulation  |                                                 |
\*---------------------------------------------------------------------------*/
FoamFile
{
    version     2.0;
    format      ascii;
    class       volVectorField;
    location    "4e-05";
    object      U;
}
// * * * * * * * * * * * * * * * * * * * * * * * * * * * * * * * * * * * * * //

dimensions      [0 1 -1 0 0 0 0];

internalField   nonuniform List<vector> 
22464
(
(0.0260886 1.73633 -1.97999e-42)
(-0.100371 1.20121 -2.37226e-43)
(-0.0727146 1.00452 0)
(-0.134706 0.903407 -1.44627e-43)
(-0.148714 0.898732 9.04219e-43)
(-0.191508 0.943195 1.83391e-42)
(-0.21251 1.01495 4.70241e-43)
(-0.119834 0.999757 -4.14891e-43)
(-0.160384 0.878218 0)
(-0.126678 0.702136 2.01655e-42)
(-0.182579 0.500949 3.33068e-46)
(-0.0944434 0.4601 -1.83803e-42)
(-0.0730792 0.332801 -3.42791e-43)
(-0.14173 0.312951 7.95562e-43)
(0.0147159 0.337625 0)
(-0.0844057 0.235123 -1.18027e-42)
(-0.0176803 0.25047 -1.01892e-42)
(-0.0238104 0.211416 4.26816e-43)
(-0.037548 0.198341 5.64144e-43)
(-0.0178703 0.191647 0)
(-0.0153255 0.168287 -2.90961e-43)
(-0.0226449 0.15314 -9.14619e-44)
(-0.0210141 0.149994 0)
(-0.0205918 0.147147 -2.39132e-44)
(-0.0180036 0.142313 0)
(-0.0154825 0.133903 -1.62784e-43)
(-0.0145651 0.124368 -1.40475e-43)
(-0.0154552 0.117268 8.73683e-45)
(-0.0155709 0.113421 -2.98705e-52)
(-0.0152329 0.11077 -9.95909e-45)
(-0.0149947 0.108407 -7.37135e-45)
(-0.0148977 0.106425 -5.15397e-45)
(-0.0149386 0.105051 6.42314e-45)
(-0.0152034 0.104543 7.94818e-45)
(-0.0161166 0.105135 -6.77039e-44)
(-0.0143318 0.104999 -1.19498e-43)
(-0.0130989 0.10202 -1.48879e-44)
(-0.0129539 0.0983494 1.88258e-44)
(-0.0141556 0.0965564 3.1111e-44)
(-0.0145678 0.0970116 -2.78542e-44)
(-0.0143005 0.097615 1.41815e-44)
(-0.012913 0.0965666 5.12443e-45)
(-0.0123253 0.0937526 -1.64095e-44)
(-0.0124725 0.0910984 -2.18183e-45)
(-0.0128302 0.0896405 -3.65541e-44)
(-0.0125527 0.0887748 -9.12035e-53)
(-0.0119478 0.0873584 -4.98114e-45)
(-0.0114752 0.0851611 3.11948e-45)
(-0.010712 0.0822942 2.12952e-44)
(-0.010184 0.0787787 9.02895e-44)
(-0.00914727 0.0748229 -4.05218e-52)
(-0.00930525 0.0713809 -1.12522e-43)
(-0.00961443 0.0700146 1.2454e-43)
(-0.0111919 0.070781 9.73033e-44)
(-0.00882151 0.071187 -1.49148e-43)
(-0.00867617 0.0682184 6.11422e-52)
(-0.00692358 0.0637981 4.60061e-43)
(-0.0114909 0.062657 1.94514e-43)
(-0.0162461 0.0702529 1.56118e-43)
(-0.0108035 0.0768013 -2.15252e-43)
(-0.00684178 0.072789 2.02987e-52)
(-0.00603822 0.0640475 -8.56101e-44)
(-0.00535111 0.0558536 -3.05323e-44)
(-0.00557517 0.0498735 1.51025e-43)
(-0.0070921 0.0477703 2.89892e-44)
(-0.00302898 0.0469223 8.35905e-44)
(-0.0114239 0.0496508 2.47076e-43)
(-0.0159512 0.0621281 2.20952e-44)
(-0.00859707 0.0711616 9.49451e-44)
(-0.0174511 0.0752515 -3.67425e-43)
(-0.00783196 0.0798136 -3.52233e-43)
(-0.0141244 0.0781067 1.51302e-43)
(-0.00782197 0.0780071 7.11965e-44)
(-0.0103179 0.073869 -1.5663e-43)
(-0.00737726 0.071023 -3.40182e-44)
(-0.00861937 0.0669284 2.76609e-44)
(-0.00491679 0.0618629 1.92403e-43)
(-0.00657065 0.0556929 -2.68137e-43)
(-0.0131917 0.0572906 -2.65727e-43)
(-0.0124535 0.0644287 -4.57394e-44)
(-0.00852418 0.0661065 -1.02592e-43)
(-0.00612788 0.0609993 5.59644e-44)
(-0.00681483 0.0547272 -5.51949e-45)
(-0.00586656 0.0502759 1.54774e-44)
(-0.00687458 0.0472834 4.20313e-44)
(-0.000923893 0.0434217 -7.28161e-44)
(-0.0147118 0.0465093 -3.2565e-44)
(0.0060971 0.0479188 -2.45872e-45)
(-0.0182821 0.0455022 9.87232e-44)
(-0.00162499 0.0555588 -1.85338e-43)
(-0.0175091 0.0560052 -1.11464e-44)
(-0.00767309 0.0646714 5.71241e-44)
(-0.00995778 0.0640016 8.31206e-44)
(-0.011195 0.0660447 1.33634e-43)
(-0.0106704 0.0689069 1.59049e-43)
(-0.0106044 0.0703382 0)
(-0.0086441 0.0694989 -1.59237e-43)
(-0.00821805 0.0663558 -2.58637e-43)
(-0.00815055 0.0633674 -2.83379e-51)
(-0.00806689 0.0610627 8.19174e-44)
(-0.00768456 0.0590254 0)
(-0.00736408 0.0568881 -2.30753e-45)
(-0.00709901 0.0547752 2.32906e-45)
(-0.0069637 0.0528727 -8.38913e-46)
(-0.00689833 0.0513346 0)
(-0.00687465 0.0501763 -9.50113e-46)
(-0.00684702 0.0493274 -5.36356e-45)
(-0.00679922 0.0486721 -3.39065e-45)
(-0.00673721 0.0481137 -1.03768e-45)
(-0.00667003 0.0475986 -1.13143e-45)
(-0.00660282 0.0471051 -3.29613e-45)
(-0.00653696 0.046626 -1.42197e-45)
(-0.00647248 0.0461589 -1.56086e-45)
(-0.00640928 0.045702 -1.68654e-45)
(-0.00634722 0.0452541 -3.62593e-45)
(-0.00628618 0.0448144 0)
(-0.00622608 0.044382 0)
(-0.00616685 0.0439566 -2.11866e-45)
(-0.00610846 0.0435375 -3.93371e-45)
(-0.00605089 0.0431246 0)
(-0.0059941 0.0427176 0)
(-0.00593809 0.0423161 -1.62967e-53)
(-0.00588284 0.0419202 -1.61835e-45)
(-0.00582833 0.0415296 -4.34215e-45)
(-0.00577453 0.0411441 -4.41475e-45)
(-0.00572141 0.0407637 0)
(-0.00566898 0.0403883 0)
(-0.0056172 0.0400176 -4.62754e-45)
(-0.00556608 0.0396517 -4.69849e-45)
(-0.00551561 0.0392905 0)
(-0.00546578 0.0389338 0)
(-0.0054166 0.0385817 0)
(-0.00536804 0.0382341 0)
(-0.00532009 0.0378908 -4.9958e-45)
(-0.00527274 0.0375518 -5.04054e-45)
(-0.00522597 0.0372171 -3.70785e-45)
(-0.00517977 0.0368865 -5.12592e-45)
(-0.00513414 0.0365601 0)
(-0.00508906 0.0362376 0)
(-0.00504452 0.0359191 -5.26299e-45)
(-0.00500053 0.0356044 -5.31196e-45)
(-0.00495708 0.0352937 0)
(-0.00491416 0.0349867 0)
(-0.00487177 0.0346834 6.70655e-45)
(-0.00482989 0.0343839 5.50807e-45)
(-0.00478852 0.0340879 -5.55511e-45)
(-0.00474765 0.0337956 -4.3996e-45)
(-0.00470727 0.0335068 0)
(-0.00466737 0.0332215 -1.17279e-45)
(-0.00462795 0.0329396 0)
(-0.00458899 0.032661 0)
(-0.0045505 0.0323858 0)
(-0.00451246 0.0321139 -5.89178e-45)
(-0.00447487 0.0318452 -5.9425e-45)
(-0.00443774 0.0315796 5.99214e-45)
(-0.00440104 0.0313173 1.20795e-44)
(-0.00436479 0.031058 1.21691e-44)
(-0.00432896 0.0308019 7.18173e-45)
(-0.00429356 0.0305487 -6.16399e-45)
(-0.00425857 0.0302986 -6.19833e-45)
(-0.004224 0.0300514 -5.208e-45)
(-0.00418983 0.0298071 -6.25663e-45)
(-0.00415606 0.0295656 0)
(-0.00412267 0.029327 9.87719e-46)
(-0.00408967 0.0290911 -6.32219e-45)
(-0.00405705 0.028858 -9.65813e-46)
(-0.00402479 0.0286275 9.54957e-46)
(-0.0039929 0.0283996 -6.37457e-45)
(-0.00396136 0.0281743 0)
(-0.00393018 0.0279516 -6.40924e-45)
(-0.00389935 0.0277313 -6.42775e-45)
(-0.00386886 0.0275135 -5.54591e-45)
(-0.0038387 0.0272982 -1.29375e-44)
(-0.00380888 0.0270852 -8.81142e-46)
(-0.00377939 0.0268746 8.71174e-46)
(-0.00375023 0.0266664 -1.30794e-44)
(-0.00372139 0.0264604 -7.41677e-45)
(-0.00369286 0.0262567 -6.59091e-45)
(-0.00366466 0.0260553 -1.32343e-44)
(-0.00363676 0.0258561 -7.46741e-45)
(-0.00360917 0.025659 -6.66999e-45)
(-0.00358188 0.0254642 -6.6961e-45)
(-0.00355489 0.0252715 6.72169e-45)
(-0.0035282 0.0250809 1.3493e-44)
(-0.00350181 0.0248924 1.35409e-44)
(-0.0034757 0.0247059 7.56587e-45)
(-0.00344988 0.0245215 -6.81536e-45)
(-0.00342434 0.0243392 -6.83601e-45)
(-0.00339908 0.0241588 -6.10668e-45)
(-0.00337409 0.0239804 -1.3746e-44)
(-0.00334938 0.0238039 -6.88924e-45)
(-0.00332494 0.0236294 6.90415e-45)
(-0.00330077 0.0234568 8.74185e-53)
(-0.00327685 0.023286 -7.10452e-46)
(-0.0032532 0.0231171 7.0307e-46)
(-0.0032298 0.0229501 -6.9536e-45)
(-0.00320666 0.0227848 0)
(-0.00318377 0.0226214 -6.97256e-45)
(-0.00316113 0.0224597 -6.98057e-45)
(-0.00313874 0.0222998 -6.32074e-45)
(-0.0031166 0.0221417 -1.39885e-44)
(-0.0030947 0.0219853 -6.52971e-46)
(-0.00307304 0.0218306 6.46025e-46)
(-0.00305162 0.0216777 -1.40196e-44)
(-0.00303045 0.0215264 -7.64584e-45)
(-0.00300952 0.0213769 7.01677e-45)
(-0.00298882 0.021229 7.01931e-45)
(-0.00296836 0.0210828 -6.11683e-46)
(-0.00294814 0.0209383 -7.02276e-45)
(-0.00292815 0.0207955 -5.98134e-46)
(-0.0029084 0.0206543 7.02409e-45)
(-0.00288889 0.0205148 -7.02395e-45)
(-0.00286961 0.020377 -2.42468e-52)
(-0.00285057 0.0202408 1.4045e-44)
(-0.00283176 0.0201062 5.64209e-46)
(-0.00281319 0.0199734 -7.01974e-45)
(-0.00279486 0.0198422 -6.46709e-45)
(-0.00277677 0.0197126 -1.40306e-44)
(-0.00275892 0.0195848 -5.37079e-46)
(-0.00274131 0.0194586 5.30207e-46)
(-0.00272394 0.0193341 -7.00428e-45)
(-0.00270681 0.0192114 6.48339e-45)
(-0.00268992 0.0190903 5.09513e-46)
(-0.00267328 0.0189709 -6.98998e-45)
(-0.00265689 0.0188533 0)
(-0.00264075 0.0187374 -6.97821e-45)
(-0.00262486 0.0186232 -4.8148e-46)
(-0.00260922 0.0185108 6.96439e-45)
(-0.00259383 0.0184002 -6.9568e-45)
(-0.0025787 0.0182913 -4.6027e-46)
(-0.00256383 0.0181842 4.53182e-46)
(-0.00254921 0.018079 -1.38599e-44)
(-0.00253486 0.0179755 -7.35817e-45)
(-0.00252077 0.0178739 -6.90751e-45)
(-0.00250693 0.017774 -6.89479e-45)
(-0.00249336 0.0176761 0)
(-0.00248005 0.0175799 -6.8663e-45)
(-0.00246701 0.0174856 -4.03555e-46)
(-0.00245422 0.0173931 6.83305e-45)
(-0.00244169 0.0173024 -6.81437e-45)
(-0.00242943 0.0172136 -7.17714e-45)
(-0.00241741 0.0171265 0)
(-0.00240565 0.0170412 -6.74926e-45)
(-0.00239413 0.0169577 -6.72436e-45)
(-0.00238285 0.0168759 -6.34023e-45)
(-0.00237181 0.0167958 -1.33376e-44)
(-0.00236099 0.0167173 -6.63778e-45)
(-0.00235039 0.0166404 -6.60455e-45)
(-0.00234 0.016565 -6.56902e-45)
(-0.00232979 0.0164911 -6.62823e-46)
(-0.00231976 0.0164184 -6.4906e-45)
(-0.00230988 0.016347 -1.28947e-44)
(-0.00230014 0.0162767 -6.40113e-45)
(-0.00229049 0.0162073 -6.35176e-45)
(-0.00228092 0.0161386 -6.29915e-45)
(-0.00227137 0.0160704 4.61003e-62)
(-0.0022618 0.0160023 -6.18414e-45)
(-0.00225215 0.0159342 -6.12169e-45)
(-0.00224236 0.0158656 -3.29759e-46)
(-0.00223236 0.015796 -5.65015e-45)
(-0.00222208 0.0157251 -5.91423e-45)
(-0.00221142 0.0156522 -5.83842e-45)
(-0.00220029 0.0155767 7.42079e-46)
(-0.00218856 0.0154981 5.67719e-45)
(-0.00217608 0.0154153 5.59221e-45)
(-0.00216267 0.0153275 1.0576e-44)
(-0.00214814 0.0152334 4.95328e-45)
(-0.00213225 0.0151317 -5.32948e-45)
(-0.00211484 0.0150211 -1.07615e-45)
(-0.00209574 0.0149 5.74478e-45)
(-0.00207482 0.0147672 6.3869e-46)
(-0.00205175 0.0146213 -4.29246e-45)
(-0.00202621 0.0144604 -5.67144e-45)
(-0.00199767 0.0142824 -8.52354e-46)
(-0.00196491 0.0140837 -9.54134e-46)
(-0.00192661 0.0138571 -1.06248e-45)
(-0.00187981 0.0135741 0)
(-0.0018176 0.0131922 1.23327e-45)
(-0.00174096 0.0126898 -1.32965e-45)
(-0.00161409 0.0120498 -1.39999e-45)
(-0.00151076 0.0113864 -2.42313e-45)
(-0.00138391 0.0107916 -2.80045e-45)
(-0.00121895 0.0101247 -2.48111e-45)
(-0.000981029 0.00925028 -3.38348e-45)
(-0.000324387 0.00732522 -2.55517e-45)
(0.000324202 0.00728668 2.45099e-45)
(0.000972394 0.00915761 7.57163e-46)
(0.00120744 0.0100352 1.31048e-47)
(0.00137902 0.0107653 -7.49153e-46)
(0.00150846 0.011501 3.37571e-45)
(0.00164989 0.0121792 -5.92637e-47)
(0.00173988 0.0127168 -4.34301e-47)
(0.00181215 0.0131466 -1.29999e-45)
(0.00186897 0.0134903 1.18625e-45)
(0.00191577 0.0137738 1.05414e-45)
(0.00195493 0.0140145 9.47189e-46)
(0.00198867 0.0142238 -2.32322e-48)
(0.00201834 0.014409 7.73282e-46)
(0.00204478 0.014574 -7.02627e-46)
(0.00206839 0.0147217 0)
(0.00208959 0.0148546 -5.85425e-46)
(0.00210866 0.0149748 -7.7921e-50)
(0.00212588 0.0150843 -4.84077e-45)
(0.00214151 0.0151852 -3.1875e-50)
(0.00215584 0.0152791 5.96368e-45)
(0.00216913 0.0153678 -5.61526e-45)
(0.00218163 0.0154522 -5.30342e-45)
(0.00219354 0.0155334 4.84759e-52)
(0.00220498 0.0156119 -5.84948e-45)
(0.00221607 0.0156883 -1.14789e-44)
(0.00222687 0.0157628 -8.09163e-52)
(0.00223742 0.0158356 6.71899e-45)
(0.00224773 0.0159069 3.31515e-46)
(0.00225784 0.015977 3.26039e-46)
(0.00226777 0.0160461 3.21827e-46)
(0.00227755 0.0161145 6.27094e-45)
(0.00228722 0.0161826 6.32509e-45)
(0.00229681 0.0162506 -6.37781e-45)
(0.00230639 0.0163189 -1.28576e-44)
(0.00231599 0.0163879 -6.47772e-45)
(0.00232568 0.0164578 6.46801e-46)
(0.00233549 0.0165291 -6.56828e-45)
(0.00234548 0.0166018 -6.60947e-45)
(0.00235567 0.0166762 -6.64776e-45)
(0.00236611 0.0167525 -1.33662e-44)
(0.00237681 0.0168308 -7.06772e-45)
(0.00238779 0.0169111 -6.74521e-45)
(0.00239907 0.0169935 -6.77216e-45)
(0.00241066 0.0170781 0)
(0.00242255 0.0171649 -6.4362e-45)
(0.00243476 0.0172538 -6.8386e-45)
(0.00244727 0.0173448 6.85659e-45)
(0.00246009 0.0174379 4.05825e-46)
(0.00247322 0.017533 -6.8874e-45)
(0.00248663 0.0176301 0)
(0.00250034 0.0177292 -6.91252e-45)
(0.00251432 0.0178302 -6.92331e-45)
(0.00252859 0.0179331 -6.48962e-45)
(0.00254312 0.0180379 -1.38837e-44)
(0.00255793 0.0181445 -4.57872e-46)
(0.00257299 0.0182529 4.64991e-46)
(0.00258831 0.0183631 -6.96363e-45)
(0.00260389 0.018475 6.96966e-45)
(0.00261972 0.0185887 4.86001e-46)
(0.00263579 0.0187041 -6.98026e-45)
(0.00265211 0.0188212 0)
(0.00266867 0.0189399 -6.98936e-45)
(0.00268548 0.0190604 -5.13435e-46)
(0.00270252 0.0191825 7.51753e-45)
(0.00271979 0.0193063 -7.00096e-45)
(0.00273731 0.0194317 -5.33696e-46)
(0.00275506 0.0195587 5.40406e-46)
(0.00277304 0.0196874 -1.40214e-44)
(0.00279125 0.0198177 -7.56743e-45)
(0.0028097 0.0199497 -7.01639e-45)
(0.00282837 0.0200832 -5.67143e-46)
(0.00284728 0.0202184 1.40427e-44)
(0.00286642 0.0203552 3.62064e-53)
(0.00288578 0.0204936 -7.02552e-45)
(0.00290538 0.0206337 7.02724e-45)
(0.00292521 0.0207753 6.0051e-46)
(0.00294527 0.0209186 -7.02967e-45)
(0.00296556 0.0210636 6.13906e-46)
(0.00298608 0.0212102 7.03043e-45)
(0.00300684 0.0213585 7.03003e-45)
(0.00302783 0.0215084 -6.3948e-45)
(0.00304906 0.02166 -1.40546e-44)
(0.00307052 0.0218133 -6.47911e-46)
(0.00309223 0.0219683 6.54822e-46)
(0.00311418 0.022125 -1.40361e-44)
(0.00313637 0.0222835 -7.68218e-45)
(0.00315881 0.0224437 -7.00781e-45)
(0.00318149 0.0226057 -7.00129e-45)
(0.00320442 0.0227694 0)
(0.00322761 0.022935 -6.98531e-45)
(0.00325105 0.0231024 -7.04754e-46)
(0.00327475 0.0232716 7.12159e-46)
(0.00329871 0.0234427 2.23347e-53)
(0.00332294 0.0236157 6.94038e-45)
(0.00334743 0.0237906 -6.92616e-45)
(0.0033722 0.0239674 -1.38213e-44)
(0.00339723 0.0241462 -7.64399e-45)
(0.00342254 0.024327 -6.87529e-45)
(0.00344814 0.0245098 -6.85532e-45)
(0.00347402 0.0246946 6.05959e-45)
(0.00350018 0.0248815 1.36216e-44)
(0.00352664 0.0250704 1.35726e-44)
(0.00355339 0.0252615 6.76033e-45)
(0.00358044 0.0254547 -6.73291e-45)
(0.00360779 0.0256501 -6.70416e-45)
(0.00363545 0.0258476 -5.84889e-45)
(0.00366342 0.0260474 -1.32866e-44)
(0.0036917 0.0262494 -6.61158e-45)
(0.0037203 0.0264536 -5.72628e-45)
(0.00374922 0.0266602 -1.30928e-44)
(0.00377847 0.0268691 -8.7214e-46)
(0.00380804 0.0270803 8.82003e-46)
(0.00383794 0.0272938 -1.28967e-44)
(0.00386818 0.0275098 -7.31863e-45)
(0.00389876 0.0277282 -6.38518e-45)
(0.00392968 0.027949 -6.35476e-45)
(0.00396095 0.0281723 0)
(0.00399257 0.0283982 -6.29669e-45)
(0.00402454 0.0286266 -9.55241e-46)
(0.00405688 0.0288576 9.66263e-46)
(0.00408959 0.0290912 -6.21708e-45)
(0.00412266 0.0293275 -9.88758e-46)
(0.00415612 0.0295665 0)
(0.00418995 0.0298083 -6.14572e-45)
(0.00422418 0.0300528 -7.14687e-45)
(0.0042588 0.0303002 -6.10135e-45)
(0.00429382 0.0305505 -6.07937e-45)
(0.00432925 0.0308038 4.99766e-45)
(0.0043651 0.03106 1.20672e-44)
(0.00440137 0.0313193 1.20173e-44)
(0.00443807 0.0315817 5.98154e-45)
(0.0044752 0.0318472 -5.95152e-45)
(0.00451278 0.032116 -5.91785e-45)
(0.00455081 0.032388 0)
(0.0045893 0.0326633 0)
(0.00462826 0.032942 0)
(0.0046677 0.0332241 1.17155e-45)
(0.00470762 0.0335097 0)
(0.00474802 0.0337988 -6.81729e-45)
(0.00478892 0.0340913 -5.55543e-45)
(0.00483033 0.0343875 5.49271e-45)
(0.00487224 0.0346872 4.18626e-45)
(0.00491466 0.0349905 0)
(0.0049576 0.0352975 0)
(0.00500106 0.0356083 -5.2682e-45)
(0.00504505 0.0359228 -5.22273e-45)
(0.00508957 0.0362411 0)
(0.00513463 0.0365634 0)
(0.00518024 0.0368896 -5.10287e-45)
(0.00522641 0.0372199 -6.43776e-45)
(0.00527315 0.0375543 -5.02029e-45)
(0.00532047 0.037893 -4.9737e-45)
(0.00536838 0.0382359 0)
(0.0054169 0.0385832 0)
(0.00546603 0.0389349 0)
(0.00551579 0.0392911 0)
(0.00556619 0.0396518 -4.6892e-45)
(0.00561723 0.0400172 -4.62921e-45)
(0.00566893 0.0403873 0)
(0.00572129 0.0407622 0)
(0.00577433 0.041142 -4.45169e-45)
(0.00582806 0.0415268 -4.38998e-45)
(0.0058825 0.0419169 1.61579e-45)
(0.00593766 0.0423122 1.65617e-53)
(0.00599357 0.0427131 0)
(0.00605025 0.0431197 0)
(0.00610772 0.0435322 -3.99922e-45)
(0.00616602 0.0439508 -5.63316e-45)
(0.00622517 0.0443759 0)
(0.00628523 0.0448079 0)
(0.00634623 0.0452472 -3.59448e-45)
(0.00640827 0.0456945 -5.34798e-45)
(0.00647142 0.0461507 -5.29176e-45)
(0.00653581 0.0466169 -5.25249e-45)
(0.00660155 0.0470948 -3.22747e-45)
(0.0066686 0.047587 -5.31794e-45)
(0.00673563 0.0481005 -5.52623e-45)
(0.00679754 0.0486568 -3.37026e-45)
(0.0068453 0.0493093 -7.10205e-46)
(0.00687287 0.0501543 -9.83633e-46)
(0.00689625 0.0513075 0)
(0.00696076 0.0528402 8.36267e-46)
(0.00709463 0.0547386 -2.33298e-45)
(0.00735767 0.0568508 2.34175e-45)
(0.00767758 0.0589896 0)
(0.00806546 0.0610192 8.08495e-44)
(0.00815622 0.0632964 2.38703e-51)
(0.00821227 0.0662599 -2.56621e-43)
(0.0086108 0.0694294 -1.93683e-43)
(0.0105463 0.0703657 0)
(0.010687 0.0689854 1.61196e-43)
(0.0112124 0.066102 8.5235e-44)
(0.00995489 0.0640226 6.16725e-44)
(0.00775639 0.0646106 2.00878e-43)
(0.0171166 0.0563803 -4.97273e-45)
(0.00208146 0.0558342 1.9616e-43)
(0.0179114 0.0461176 -2.48101e-43)
(-0.00487007 0.0474544 -1.01581e-44)
(0.0133581 0.0462967 2.37906e-43)
(0.00147288 0.0438483 7.41066e-44)
(0.00670629 0.0474982 -3.82134e-44)
(0.00592482 0.0505851 -1.64222e-44)
(0.00688774 0.0550167 5.83348e-44)
(0.0061125 0.0613467 5.96318e-44)
(0.00849287 0.0665983 -1.21828e-43)
(0.0126635 0.0647669 -5.31849e-44)
(0.0134041 0.0572125 -4.87974e-44)
(0.00636945 0.0556555 -2.29316e-43)
(0.00480008 0.0621938 5.44392e-44)
(0.00872788 0.0673393 1.86619e-44)
(0.00751847 0.0711698 -4.0261e-44)
(0.010552 0.0734963 -1.54454e-43)
(0.00774768 0.0772638 -7.29955e-44)
(0.0141815 0.0770687 -1.59175e-43)
(0.00745125 0.078849 -3.40282e-43)
(0.0177162 0.0739745 1.18606e-43)
(0.00807462 0.0699286 -1.0186e-43)
(0.0161449 0.0609875 -1.04862e-43)
(0.00939934 0.0506975 1.96604e-43)
(0.0053086 0.0475187 -4.18012e-44)
(0.00667572 0.0472786 -2.11702e-44)
(0.00578211 0.0495067 1.69291e-43)
(0.00497975 0.0558774 1.81277e-44)
(0.00601283 0.0645422 -7.65954e-44)
(0.00693443 0.073408 -1.94859e-52)
(0.0108239 0.077457 -2.27595e-43)
(0.0164181 0.0706489 -8.69169e-44)
(0.0119477 0.062054 2.95607e-43)
(0.00676571 0.0623694 5.46783e-43)
(0.00784369 0.0670408 -8.14401e-52)
(0.00964549 0.0695697 -1.18803e-43)
(0.0100345 0.0700511 1.27229e-43)
(0.0094215 0.071138 1.25101e-43)
(0.00971458 0.0732734 -9.8338e-44)
(0.00954886 0.0764573 2.46768e-52)
(0.0104326 0.0798108 7.68917e-44)
(0.0109371 0.0827011 2.05688e-44)
(0.0117833 0.0848398 2.37224e-44)
(0.0115252 0.0871155 1.31302e-44)
(0.0122939 0.0892564 6.13608e-53)
(0.0127814 0.0905987 3.81751e-44)
(0.0131149 0.0912485 7.81595e-45)
(0.0133354 0.0914521 -1.35696e-45)
(0.0131231 0.091883 8.05208e-45)
(0.0128062 0.093291 -1.43146e-45)
(0.0128518 0.0955819 2.88395e-45)
(0.0134832 0.0977553 -1.67269e-44)
(0.0140429 0.099186 -8.56822e-45)
(0.014059 0.100441 3.45399e-45)
(0.0141452 0.102041 -3.57521e-46)
(0.0141901 0.104153 -9.35459e-45)
(0.0145616 0.106505 -2.26823e-44)
(0.0149651 0.108796 -2.5324e-44)
(0.0152091 0.11115 -3.8949e-44)
(0.0156387 0.113481 -4.51967e-44)
(0.0162008 0.115447 0)
(0.0164046 0.117328 0)
(0.016546 0.11962 -2.13637e-52)
(0.0167673 0.122507 0)
(0.0170522 0.126054 0)
(0.0174089 0.130394 0)
(0.0175234 0.136146 0)
(0.0179816 0.143773 0)
(0.0183134 0.153793 -1.52292e-44)
(0.0198379 0.165082 0)
(0.022912 0.17411 0)
(0.0273327 0.178792 0)
(0.0200625 0.195069 0)
(0.0119221 0.234945 0)
(0.0454621 0.256886 3.58914e-43)
(0.0273014 0.281485 -9.20045e-43)
(0.0580302 0.313309 -1.41103e-42)
(-0.0179488 0.444937 -1.9217e-42)
(0.217423 0.295241 2.30196e-42)
(-0.0150982 0.357697 -2.16773e-42)
(0.248247 0.050464 -2.36369e-43)
(-0.0132017 0.145561 0)
(0.145751 0.0195753 4.50539e-43)
(0.0482635 0.264024 0)
(0.110161 0.404233 2.54368e-43)
(0.0195856 0.7378 2.50335e-42)
(0.1371 0.966284 1.51779e-42)
(0.0529883 1.4216 -2.40496e-42)
(0.234515 1.81222 -1.60313e-42)
(0.156866 2.82359 1.35457e-42)
(-0.00071534 0.0279769 7.29747e-45)
(-0.000931268 0.0522469 0)
(-0.00106262 0.0790724 1.88986e-46)
(-0.00116707 0.107839 0)
(-0.00130574 0.13817 0)
(-0.00146323 0.17005 0)
(-0.00159482 0.203255 0)
(-0.00170945 0.237483 0)
(-0.00182202 0.272512 0)
(-0.00193557 0.308164 0)
(-0.00204861 0.344282 0)
(-0.00215984 0.380722 -1.39518e-47)
(-0.00226887 0.417353 -2.36551e-48)
(-0.002375 0.454053 1.88017e-51)
(-0.0024768 0.49071 4.14544e-48)
(-0.00257278 0.527216 1.47681e-48)
(-0.00266182 0.563468 0)
(-0.00274311 0.599372 0)
(-0.00281615 0.634836 -2.1499e-49)
(-0.00288058 0.669778 -1.11564e-49)
(-0.00293614 0.704123 1.00251e-49)
(-0.00298264 0.737802 7.54076e-51)
(-0.0030199 0.770753 0)
(-0.00304781 0.802921 -1.93759e-51)
(-0.00306633 0.834256 0)
(-0.00307546 0.864716 3.90239e-51)
(-0.00307528 0.894265 3.91298e-51)
(-0.00306592 0.922871 0)
(-0.00304761 0.950508 -4.85853e-52)
(-0.00302057 0.977156 -4.81426e-52)
(-0.00298514 1.0028 0)
(-0.00294163 1.02743 0)
(-0.00289041 1.05103 0)
(-0.00283189 1.07361 0)
(-0.00276646 1.09516 0)
(-0.00269454 1.11569 0)
(-0.00261654 1.1352 0)
(-0.0025329 1.15371 0)
(-0.00244401 1.17122 0)
(-0.00235029 1.18774 0)
(-0.00225214 1.2033 0)
(-0.00214992 1.21791 0)
(-0.00204402 1.23158 0)
(-0.00193478 1.24433 0)
(-0.00182253 1.25617 0)
(-0.00170758 1.26714 0)
(-0.00159022 1.27723 0)
(-0.00147072 1.28648 0)
(-0.00134934 1.29489 0)
(-0.00122631 1.30248 0)
(-0.00110185 1.30927 0)
(-0.000976147 1.31528 0)
(-0.00084939 1.3205 0)
(-0.000721745 1.32496 0)
(-0.000593365 1.32867 0)
(-0.000464392 1.33162 0)
(-0.000334958 1.33384 0)
(-0.000205186 1.33532 0)
(-7.51953e-05 1.33607 0)
(5.49022e-05 1.33609 0)
(0.000184995 1.33538 0)
(0.000314972 1.33393 0)
(0.00044472 1.33175 0)
(0.000574123 1.32883 0)
(0.000703059 1.32516 0)
(0.000831394 1.32073 0)
(0.000958989 1.31553 0)
(0.00108569 1.30955 0)
(0.00121132 1.30278 0)
(0.00133571 1.2952 0)
(0.00145863 1.2868 0)
(0.00157986 1.27757 0)
(0.00169915 1.26747 0)
(0.00181622 1.2565 0)
(0.00193076 1.24465 0)
(0.00204244 1.23188 0)
(0.00215088 1.21818 0)
(0.0022557 1.20354 0)
(0.00235647 1.18794 0)
(0.00245274 1.17137 0)
(0.00254402 1.1538 0)
(0.00262982 1.13523 0)
(0.00270964 1.11565 0)
(0.00278296 1.09504 0)
(0.00284927 1.07342 0)
(0.00290808 1.05076 0)
(0.00295894 1.02708 0)
(0.00300145 1.00238 0)
(0.00303526 0.976661 0)
(0.00306011 0.949946 0)
(0.00307585 0.922248 0)
(0.00308238 0.893588 0)
(0.00307972 0.863993 0)
(0.00306795 0.833493 0)
(0.00304722 0.802125 0)
(0.00301765 0.769929 0)
(0.00297938 0.736954 0)
(0.0029325 0.703253 0)
(0.00287704 0.668886 0)
(0.00281305 0.633923 0)
(0.00274056 0.598438 1.61025e-51)
(0.00265973 0.562515 1.53307e-51)
(0.00257086 0.526246 2.31913e-50)
(0.00247457 0.489729 2.17767e-50)
(0.00237179 0.45307 1.62513e-49)
(0.00226363 0.416378 1.03695e-48)
(0.00215119 0.379771 0)
(0.00203576 0.343366 2.15595e-47)
(0.00191964 0.307287 -3.38353e-47)
(0.00180592 0.271669 -4.74088e-47)
(0.00169824 0.236666 -3.88786e-47)
(0.00159618 0.202444 -5.88564e-46)
(0.00147881 0.169216 -1.55609e-46)
(0.00131706 0.137414 0)
(0.00116061 0.107384 2.75549e-46)
(0.00108686 0.0787707 0)
(0.000953492 0.0520403 0)
(0.000726126 0.0278519 0)
(-0.843583 1.84463 0)
(-2.07094 1.43511 -1.25623e-41)
(-1.4983 1.49695 -1.06975e-42)
(-1.15792 1.59551 1.74551e-44)
(-0.955729 1.75625 0)
(-0.798827 1.94362 2.44471e-44)
(-0.668243 2.12814 -3.87023e-44)
(-0.560117 2.29907 0)
(-0.470036 2.45454 2.67149e-44)
(-0.393664 2.59466 2.2874e-44)
(-0.32759 2.71974 0)
(-0.26926 2.83 1.57404e-45)
(-0.216733 2.92556 1.15603e-45)
(-0.168512 3.00646 -4.41852e-46)
(-0.123429 3.07269 -3.10839e-46)
(-0.0805652 3.12421 -1.72087e-45)
(-0.0391791 3.16103 -3.11719e-47)
(0.00133935 3.18316 0)
(0.0414995 3.19069 1.98804e-46)
(0.0817463 3.18377 -5.01741e-47)
(0.12249 3.1626 -2.56071e-47)
(0.164113 3.12748 1.32014e-47)
(0.20698 3.07881 7.70499e-48)
(0.251452 3.01708 -9.51213e-46)
(0.297902 2.94289 -4.50224e-47)
(0.346697 2.85703 1.66555e-44)
(0.398174 2.76051 0)
(0.452629 2.65478 0)
(0.510314 2.54199 3.82511e-45)
(0.571402 2.42539 2.84782e-44)
(0.635792 2.31027 -1.42636e-44)
(0.702345 2.20626 -2.15449e-44)
(0.770037 2.13275 0)
(0.847334 2.12219 7.02872e-44)
(0.997474 2.20988 -1.18835e-42)
(1.07254 2.40791 0)
(0.416506 2.71289 1.71067e-43)
(0.316993 2.5131 -3.13548e-43)
(0.00202986 0.030663 9.56834e-46)
(0.0028736 0.0322989 -1.22413e-44)
(0.00347199 0.0339126 -9.21301e-45)
(0.00393102 0.0358669 6.49007e-45)
(0.00449423 0.0377973 1.31485e-45)
(0.00484823 0.0393333 -7.64212e-45)
(0.0051247 0.0405803 3.34534e-47)
(0.00534447 0.0415892 8.78279e-45)
(0.00552768 0.042432 8.58734e-45)
(0.00568328 0.0431559 8.38545e-45)
(0.0058189 0.0437937 3.86984e-45)
(0.00593911 0.044363 -6.0042e-49)
(0.00604693 0.0448736 -1.8007e-45)
(0.0061434 0.0453328 4.64628e-45)
(0.00622985 0.0457478 0)
(0.00630717 0.0461253 -7.86641e-45)
(0.00637621 0.0464717 -6.57053e-45)
(0.00643794 0.0467925 5.46035e-45)
(0.00649343 0.0470927 6.77006e-45)
(0.0065438 0.0473765 0)
(0.00659014 0.0476472 1.03139e-45)
(0.00663336 0.0479071 1.98029e-45)
(0.0066742 0.0481583 -9.55403e-46)
(0.00671319 0.0484021 7.2078e-45)
(0.0067507 0.0486394 7.28182e-45)
(0.00678693 0.0488712 8.79712e-46)
(0.00682203 0.0490981 8.61977e-46)
(0.00685604 0.049321 8.47563e-46)
(0.00688903 0.0495407 0)
(0.00692106 0.0497582 -8.2848e-46)
(0.00695222 0.0499742 0)
(0.00698261 0.05019 -1.64467e-45)
(0.00701239 0.0504064 -8.2397e-46)
(0.00704172 0.0506244 7.85652e-45)
(0.00707079 0.0508449 -2.12307e-52)
(0.00709978 0.0510687 -8.80707e-45)
(0.00712888 0.0512964 -8.86692e-45)
(0.00715823 0.0515287 -8.05453e-45)
(0.007188 0.0517659 0)
(0.00721832 0.0520085 0)
(0.00724928 0.0522566 0)
(0.00728097 0.0525105 -8.20203e-45)
(0.00731346 0.0527703 -8.23136e-45)
(0.00734679 0.053036 9.74192e-46)
(0.007381 0.0533076 -8.2822e-45)
(0.00741608 0.0535851 -8.3041e-45)
(0.00745206 0.0538684 1.03043e-45)
(0.00748893 0.0541574 -8.3418e-45)
(0.00752667 0.0544521 -8.35802e-45)
(0.00756528 0.0547523 0)
(0.00760475 0.055058 -8.38601e-45)
(0.00764505 0.0553692 1.12196e-45)
(0.00768617 0.0556856 8.40886e-45)
(0.00772809 0.0560073 -8.4187e-45)
(0.0077708 0.0563342 -7.25273e-45)
(0.00781429 0.0566662 -8.43579e-45)
(0.00785854 0.0570033 -1.68864e-44)
(0.00790354 0.0573454 -7.22332e-45)
(0.00794928 0.0576926 -8.45627e-45)
(0.00799576 0.0580446 -8.46207e-45)
(0.00804296 0.0584016 0)
(0.00809088 0.0587635 -8.47253e-45)
(0.00813951 0.0591302 -7.16595e-45)
(0.00818884 0.0595018 0)
(0.00823887 0.0598781 -8.48593e-45)
(0.0082896 0.0602593 -7.12851e-45)
(0.00834102 0.0606453 0)
(0.00839313 0.0610361 0)
(0.00844592 0.0614316 0)
(0.00849939 0.0618319 -8.50369e-45)
(0.00855354 0.062237 -1.70132e-44)
(0.00860837 0.0626468 -8.50926e-45)
(0.00866387 0.0630614 -8.51164e-45)
(0.00872004 0.0634808 -8.51369e-45)
(0.00877688 0.063905 1.51093e-45)
(0.0088344 0.064334 -8.51657e-45)
(0.00889258 0.0647679 -1.54902e-44)
(0.00895144 0.0652066 -8.51737e-45)
(0.00901098 0.0656502 -8.51678e-45)
(0.00907118 0.0660986 1.59497e-45)
(0.00913207 0.0665521 8.51328e-45)
(0.00919364 0.0670105 -8.51031e-45)
(0.0092559 0.0674739 -6.86005e-45)
(0.00931884 0.0679424 0)
(0.00938247 0.068416 0)
(0.0094468 0.0688947 0)
(0.00951183 0.0693786 -8.48089e-45)
(0.00957757 0.0698678 -8.47163e-45)
(0.00964403 0.0703623 0)
(0.0097112 0.0708621 -8.4494e-45)
(0.00977909 0.0713673 -6.64679e-45)
(0.00984773 0.0718781 0)
(0.0099171 0.0723943 0)
(0.00998722 0.0729162 0)
(0.0100581 0.0734437 0)
(0.0101297 0.073977 0)
(0.0102021 0.074516 0)
(0.0102753 0.075061 0)
(0.0103493 0.0756119 -6.33081e-45)
(0.0104241 0.0761689 -8.24685e-45)
(0.0104997 0.0767319 0)
(0.0105762 0.0773011 -8.18495e-45)
(0.0106534 0.0778766 -8.15133e-45)
(0.0107315 0.0784584 0)
(0.0108105 0.0790467 1.01512e-44)
(0.0108903 0.0796414 8.04145e-45)
(0.0109711 0.0802427 -8.0025e-45)
(0.0110527 0.0808507 2.14049e-45)
(0.0111352 0.0814654 7.92252e-45)
(0.0112186 0.0820869 -7.88215e-45)
(0.0113029 0.0827153 -5.62905e-45)
(0.0113882 0.0833508 0)
(0.0114744 0.0839933 0)
(0.0115616 0.084643 0)
(0.0116497 0.0853 -7.6876e-45)
(0.0117388 0.0859644 -7.65142e-45)
(0.0118289 0.0866362 0)
(0.0119201 0.0873156 -7.58265e-45)
(0.0120122 0.0880027 -5.12784e-45)
(0.0121053 0.0886977 0)
(0.0121995 0.0894005 0)
(0.0122948 0.0901113 -7.45927e-45)
(0.0123911 0.0908303 -7.43107e-45)
(0.0124885 0.0915576 -4.83942e-45)
(0.012587 0.0922932 -7.37662e-45)
(0.0126866 0.0930374 0)
(0.0127873 0.0937903 -4.66917e-45)
(0.0128892 0.0945519 -7.29374e-45)
(0.0129923 0.0953224 7.26336e-45)
(0.0130965 0.096102 1.44606e-44)
(0.0132019 0.0968908 1.43874e-44)
(0.0133086 0.0976889 7.15259e-45)
(0.0134165 0.0984964 -7.106e-45)
(0.0135256 0.0993136 -7.05323e-45)
(0.013636 0.10014 -6.99402e-45)
(0.0137478 0.100977 -3.99518e-45)
(0.0138608 0.101824 -6.85802e-45)
(0.0139752 0.102681 -6.78333e-45)
(0.014091 0.103548 -6.70632e-45)
(0.0142082 0.104425 -6.629e-45)
(0.0143268 0.105314 0)
(0.0144468 0.106213 0)
(0.0145683 0.107122 0)
(0.0146912 0.108043 0)
(0.0148156 0.108976 -6.29906e-45)
(0.0149416 0.109919 -6.24869e-45)
(0.015069 0.110874 0)
(0.0151979 0.111841 0)
(0.0153284 0.11282 0)
(0.0154604 0.113811 0)
(0.0155941 0.114814 -5.99603e-45)
(0.0157294 0.115829 -5.93301e-45)
(0.0158663 0.116858 0)
(0.0160049 0.117899 0)
(0.0161452 0.118953 -2.02681e-45)
(0.0162872 0.12002 -5.6447e-45)
(0.016431 0.121101 0)
(0.0165766 0.122196 0)
(0.016724 0.123305 -5.42695e-45)
(0.0168732 0.124428 5.76452e-53)
(0.0170242 0.125567 1.05573e-44)
(0.0171771 0.12672 9.23101e-45)
(0.0173318 0.127888 -1.02397e-45)
(0.0174885 0.129073 -5.0131e-45)
(0.0176471 0.130274 -4.90758e-45)
(0.0178075 0.131492 -4.79357e-45)
(0.01797 0.132728 -4.67221e-45)
(0.0181343 0.133983 -1.58427e-46)
(0.0183006 0.135257 4.486e-47)
(0.0184686 0.136554 -4.27896e-45)
(0.0186384 0.137874 0)
(0.0188095 0.139221 0)