/*--------------------------------*- C++ -*----------------------------------*\
| =========                 |                                                 |
| \\      /  F ield         | OpenFOAM: The Open Source CFD Toolbox           |
|  \\    /   O peration     | Version:  2.2.1                                 |
|   \\  /    A nd           | Web:      www.OpenFOAM.org                      |
|    \\/     M anipulation  |                                                 |
\*---------------------------------------------------------------------------*/
FoamFile
{
    version     2.0;
    format      ascii;
    class       volScalarField;
    location    "5e-05";
    object      alpha1;
}
// * * * * * * * * * * * * * * * * * * * * * * * * * * * * * * * * * * * * * //

dimensions      [0 0 0 0 0 0 0];

internalField   nonuniform List<scalar> 
22464
(
0.00776764
0.0131099
0.0193713
0.0567155
0.0111477
0.0214338
0.00773494
0.00668922
0.00123672
0.00106878
0.00017018
0.000178316
0.000416414
0.000627484
0.000796085
0.000870311
0.000871396
0.000796402
0.000697356
0.000655921
0.000656156
0.000700964
0.000734299
0.000788508
0.000842063
0.000890564
0.000912139
0.000915834
0.000887593
0.000848774
0.000812268
0.000802151
0.000806575
0.000800151
0.000806308
0.000800058
0.000820202
0.000822783
0.000835637
0.000842466
0.000845832
0.000846146
0.000837043
0.000833165
0.000823602
0.000819847
0.000809979
0.000799011
0.000781284
0.000766747
0.000757198
0.00075994
0.000770933
0.000786996
0.000815356
0.000853438
0.000849777
0.000845601
0.00107478
0.00142445
0.00168474
0.00210145
0.00319366
0.00336079
0.0052226
0.00264152
0.00346135
0.000886866
0.0014349
0.000449484
0.000682525
0.000443031
0.000548941
0.000521049
0.000619288
0.000676206
0.000722191
0.000794779
0.000774298
0.00108797
0.00119942
0.00160789
0.00150365
0.00281974
0.00339996
0.00536622
0.00292035
0.00425659
0.00114308
0.00120212
0.000293456
0.00031279
0.000188053
0.000181587
0.000154445
0.000133578
0.000107581
8.40769e-05
6.3014e-05
4.41919e-05
2.82935e-05
1.62715e-05
8.20681e-06
3.53589e-06
1.24568e-06
3.46109e-07
7.32906e-08
1.13232e-08
1.24104e-09
9.86252e-11
4.67717e-12
6.79524e-14
1.17919e-16
1.79605e-20
8.38224e-25
3.73104e-29
1.59774e-33
6.52836e-38
2.5187e-42
9.11307e-47
3.09364e-51
9.91097e-56
3.0544e-60
9.49292e-65
3.25505e-69
1.35818e-73
6.92399e-78
3.91705e-82
2.24594e-86
1.24774e-90
6.63111e-95
3.33241e-99
1.54392e-103
6.56068e-108
2.60275e-112
9.72851e-117
3.44463e-121
1.15933e-125
3.72097e-130
1.14156e-134
3.35796e-139
9.49831e-144
2.59165e-148
6.85195e-153
1.7649e-157
4.45014e-162
1.10526e-166
2.72062e-171
6.68935e-176
-3.33127e-180
-8.20691e-180
-3.62608e-180
-1.08939e-180
-2.63122e-181
-5.3986e-182
-9.66951e-183
-1.53995e-183
-2.21101e-184
-2.8941e-185
-3.48473e-186
-3.88966e-187
-4.05216e-188
-3.96406e-189
-3.66218e-190
-3.21133e-191
-2.6864e-192
-2.15551e-193
-1.66772e-194
-1.25099e-195
-9.14754e-197
-6.55335e-198
-4.61919e-199
-3.21299e-200
-2.20806e-201
-1.49907e-202
-1.00418e-203
-6.62494e-205
-4.29517e-206
-2.73121e-207
-1.70055e-208
-1.03554e-209
-6.16236e-211
-3.58194e-212
-2.03332e-213
-1.12728e-214
-6.10487e-216
-3.23059e-217
-1.67122e-218
-8.45593e-220
-4.18718e-221
-2.03042e-222
-9.6478e-224
-4.495e-225
-2.05488e-226
-9.22247e-228
-4.06607e-229
-1.76201e-230
-7.50859e-232
-3.14777e-233
-1.29861e-234
-5.27336e-236
-2.10812e-237
-8.29748e-239
-3.21569e-240
-1.22721e-241
-4.6124e-243
-1.70749e-244
-6.227e-246
-2.23735e-247
-7.92043e-249
-2.7627e-250
-9.49447e-252
-3.21466e-253
-1.07223e-254
-3.5228e-256
-1.14006e-257
-3.63408e-259
-1.14106e-260
-3.52952e-262
-1.07567e-263
-3.23028e-265
-9.56007e-267
-2.78853e-268
-8.01697e-270
-2.27187e-271
-6.34611e-273
-1.74737e-274
-4.74291e-276
-1.26912e-277
-3.34807e-279
-8.70922e-281
-2.2342e-282
-5.65332e-284
-1.41125e-285
-3.47614e-287
-8.45045e-289
-2.02772e-290
-4.80333e-292
-1.12344e-293
-2.59477e-295
-5.91949e-297
-1.3341e-298
-2.97111e-300
-6.54017e-302
-1.42341e-303
-3.06396e-305
-6.525e-307
-1.37064e-308
-2.60964e-310
0
0
0
0
0
0
0
0
0
0
0
0
0
0
0
0
0
0
0
0
0
0
0
0
0
0
0
0
0
0
0
0
0
0
0
0
0
0
0
0
0
0
0
0
0
0
0
0
0
0
0
0
0
0
0
0
0
0
0
0
0
0
0
0
0
0
0
0
0
0
-1.59664e-309
-7.36991e-308
-3.60995e-306
-1.75086e-304
-8.41172e-303
-4.00084e-301
-1.88295e-299
-8.7649e-298
-4.0337e-296
-1.83466e-294
-8.24466e-293
-3.65953e-291
-1.604e-289
-6.94076e-288
-2.96453e-286
-1.2496e-284
-5.1975e-283
-2.13297e-281
-8.63565e-280
-3.44906e-278
-1.35887e-276
-5.28083e-275
-2.02413e-273
-7.6516e-272
-2.85239e-270
-1.0485e-268
-3.80008e-267
-1.35786e-265
-4.78332e-264
-1.66097e-262
-5.68499e-261
-1.91789e-259
-6.37716e-258
-2.09e-256
-6.75098e-255
-2.14908e-253
-6.74195e-252
-2.08422e-250
-6.34907e-249
-1.90575e-247
-5.63641e-246
-1.64246e-244
-4.71571e-243
-1.33405e-241
-3.71872e-240
-1.02149e-238
-2.76498e-237
-7.3752e-236
-1.93846e-234
-5.01988e-233
-1.2806e-231
-3.21749e-230
-7.95935e-229
-1.93801e-227
-4.64309e-226
-1.09415e-224
-2.53512e-223
-5.77308e-222
-1.29152e-220
-2.8372e-219
-6.11676e-218
-1.29343e-216
-2.68078e-215
-5.4424e-214
-1.0816e-212
-2.1031e-211
-3.99942e-210
-7.43653e-209
-1.35198e-207
-2.40374e-206
-4.18158e-205
-7.12353e-204
-1.18985e-202
-1.95194e-201
-3.15147e-200
-5.0188e-199
-7.90077e-198
-1.23151e-196
-1.90187e-195
-2.9081e-194
-4.39354e-193
-6.53528e-192
-9.52812e-191
-1.35478e-189
-1.86906e-188
-2.48941e-187
-3.18583e-186
-3.89959e-185
-4.54542e-184
-5.0226e-183
-5.23682e-182
-5.12653e-181
-4.68645e-180
-3.9767e-179
-3.1111e-178
-2.22604e-177
-1.44265e-176
-8.36488e-176
-4.26963e-175
-1.87582e-174
-6.85888e-174
-1.96177e-173
-3.47599e-173
2.20471e-171
9.12603e-167
3.6733e-162
1.4561e-157
5.64998e-153
2.13598e-148
7.82564e-144
2.76619e-139
9.40377e-135
3.06522e-130
9.54869e-126
2.836e-121
8.00525e-117
2.14072e-112
5.39582e-108
1.27144e-103
2.75391e-99
5.48433e-95
1.03136e-90
1.85816e-86
3.25443e-82
5.81272e-78
1.16225e-73
2.85218e-69
8.46883e-65
2.7509e-60
8.9661e-56
2.80528e-51
8.27686e-47
2.28992e-42
5.93747e-38
1.45257e-33
3.38946e-29
7.61405e-25
1.63424e-20
1.09828e-16
6.46754e-14
4.52194e-12
9.60759e-11
1.2129e-09
1.11017e-08
7.20864e-08
3.41378e-07
1.23151e-06
3.50203e-06
8.14049e-06
1.61625e-05
2.81473e-05
4.40328e-05
6.28428e-05
8.3931e-05
0.00010698
0.00013344
0.000153273
0.000180848
0.000184936
0.000311385
0.000288394
0.0011929
0.00111853
0.00421216
0.00289664
0.00538282
0.00339325
0.00282544
0.00152777
0.0016494
0.00120348
0.00108496
0.000771019
0.000795531
0.000723373
0.000679226
0.000622628
0.000521779
0.000544421
0.000439883
0.000691422
0.000452841
0.0014704
0.000921929
0.00348892
0.00258598
0.00518355
0.00325495
0.00311926
0.00206741
0.00163925
0.0013936
0.00105541
0.000813787
0.000826616
0.000842402
0.000827141
0.000805781
0.00077809
0.000768089
0.000769903
0.000795968
0.000819831
0.000834262
0.000836256
0.000829876
0.000812952
0.000803133
0.000796428
0.000792258
0.00080568
0.000811
0.000823136
0.00082697
0.000830248
0.000820266
0.000823088
0.000809349
0.000790276
0.000765558
0.000744679
0.000728313
0.000715708
0.000713548
0.000722598
0.00074539
0.000782532
0.000828125
0.000884137
0.000940839
0.00100775
0.00102529
0.00100587
0.00100973
0.000998814
0.000941024
0.000813615
0.000661519
0.000488256
0.000270762
0.000246503
0.0011115
0.00113449
0.00552562
0.0063261
0.0176432
0.00909719
0.0456878
0.0158317
0.0107451
0.0063531
0
0
0
0
0
0
0
0
0
0
0
0
0
0
0
0
0
0
0
0
0
0
0
0
0
0
0
0
0
0
0
0
0
0
0
0
0
0
0
0
0
0
0
0
0
0
0
0
0
0
0
0
0
0
0
0
0
0
0
0
0
0
0
0
0
0
0
0
0
0
0
0
0
0
0
0
0
0
0
0
0
0
0
0
0
0
0
0
0
0
0
0
0
0
0
0
0
0
0
0
0
0
0
0
0
0
0
0
0
0
0
0
0
0
0
0
0
0
0.00247336
0.000151444
2.53074e-07
8.81907e-12
4.83289e-22
4.79917e-22
6.71845e-25
3.27459e-27
1.58455e-41
3.00654e-37
6.77392e-38
2.92168e-41
2.30828e-43
7.76087e-45
8.82304e-45
3.72648e-44
1.30754e-43
3.09599e-43
6.02145e-43
8.69161e-43
1.03942e-42
8.18056e-43
3.67738e-43
1.02441e-43
1.87977e-44
2.84809e-45
1.5975e-41
2.84666e-42
1.03452e-37
9.41326e-45
1.63017e-27
1.93373e-25
3.7775e-22
4.79273e-23
2.84073e-11
4.34875e-07
0.000219439
0.0030363
0
0
0
0
0
0
0
0
0
0
0
0
0
0
0
0
0
0
0
0
0
0
0
0
0
0
0
0
0
0
0
-2.42487e-310
-1.21449e-308
-6.01364e-307
-2.93721e-305
-1.4206e-303
-6.80122e-302
-3.22182e-300
-1.50954e-298
-6.99314e-297
-3.20224e-295
-1.44902e-293
-6.47784e-292
-2.8604e-290
-1.24731e-288
-5.37025e-287
-2.28249e-285
-9.57526e-284
-3.96422e-282
-1.6195e-280
-6.52782e-279
-2.59585e-277
-1.01831e-275
-3.94036e-274
-1.50388e-272
-5.66076e-271
-2.10126e-269
-7.69105e-268
-2.77557e-266
-9.87507e-265
-3.46353e-263
-1.19743e-261
-4.08017e-260
-1.37013e-258
-4.53382e-257
-1.47832e-255
-4.74961e-254
-1.50348e-252
-4.68857e-251
-1.4403e-249
-4.35818e-248
-1.29888e-246
-3.81258e-245
-1.10214e-243
-3.1376e-242
-8.79606e-241
-2.42835e-239
-6.60198e-238
-1.76757e-236
-4.66042e-235
-1.21008e-233
-3.09406e-232
-7.7901e-231
-1.93116e-229
-4.71296e-228
-1.13211e-226
-2.67618e-225
-6.22394e-224
-1.42371e-222
-3.20221e-221
-7.07935e-220
-1.5377e-218
-3.28008e-217
-6.86758e-216
-1.41051e-214
-2.83997e-213
-5.60178e-212
-1.08175e-210
-2.04383e-209
-3.77587e-208
-6.81743e-207
-1.20246e-205
-2.07129e-204
-3.48394e-203
-5.72264e-202
-9.18293e-201
-1.44066e-199
-2.21224e-198
-3.33031e-197
-4.92462e-196
-7.16863e-195
-1.02937e-193
-1.46029e-192
-2.04772e-191
-2.83587e-190
-3.86951e-189
-5.18258e-188
-6.78067e-187
-8.61967e-186
-1.05866e-184
-1.24924e-183
-1.40862e-182
-1.50972e-181
-1.52992e-180
-1.45807e-179
-1.29942e-178
-1.07608e-177
-8.22168e-177
-5.74665e-176
-3.63654e-175
-2.05576e-174
-1.01949e-173
-4.3211e-173
-1.5046e-172
-4.04177e-172
-7.54104e-172
4.8619e-170
1.61654e-165
5.19044e-161
1.63615e-156
5.04279e-152
1.51637e-147
4.43291e-143
1.25573e-138
3.44162e-134
9.10021e-130
2.3156e-125
5.66e-121
1.32647e-116
2.9732e-112
6.35649e-108
1.2941e-103
2.50116e-99
4.57406e-95
7.88976e-91
1.27924e-86
1.94001e-82
2.73848e-78
3.57582e-74
4.28474e-70
4.66383e-66
4.55766e-62
3.9319e-58
2.92483e-54
1.81751e-50
9.06763e-47
3.6391e-43
1.32449e-39
9.88745e-36
1.06075e-31
5.71481e-28
5.77772e-25
3.56992e-22
4.08039e-20
2.00439e-18
3.90886e-17
3.66715e-16
2.4026e-15
1.0985e-14
3.78724e-14
1.30582e-13
4.06727e-13
1.08515e-12
2.54379e-12
9.11803e-12
5.82765e-11
4.37373e-10
2.59329e-09
1.11125e-08
1.44774e-07
8.71873e-06
7.73359e-06
5.58231e-05
4.534e-05
0.000263435
0.000179225
0.00106323
0.000710932
0.00196378
0.000731692
0.00126548
0.000816932
0.000900056
0.0006579
0.00060584
0.000500875
0.000434133
0.000292572
0.00019157
0.00014177
8.70283e-05
0.000123608
8.6898e-05
0.000217376
0.000138384
0.000430041
0.000264027
0.000929496
0.000544741
0.00171601
0.000654562
0.00132304
0.000746751
0.000822086
0.000647771
0.000516559
0.000481388
0.000475043
0.000363495
0.000297541
0.000242941
0.000208438
0.000192214
0.000172081
0.000146929
0.000119877
0.000102152
8.44419e-05
6.91928e-05
6.58486e-05
5.90381e-05
6.12418e-05
6.05911e-05
5.78263e-05
5.2426e-05
5.72633e-05
5.28687e-05
6.04036e-05
5.84716e-05
4.82595e-05
3.44621e-05
2.44886e-05
1.82037e-05
1.30289e-05
1.02483e-05
1.11991e-05
1.44695e-05
1.59613e-05
1.56904e-05
1.48264e-05
1.37486e-05
1.69999e-05
1.82207e-05
2.10081e-05
4.0411e-05
8.311e-05
8.25611e-05
6.2068e-05
3.6425e-05
1.7233e-05
6.77554e-06
1.65971e-06
4.20895e-05
4.57925e-05
0.000164826
0.000152237
0.00147834
0.000729307
0.00724272
0.00150068
0.0110806
0.00100052
0.00422664
0.00528813
0.00116747
0.0137836
0.00178755
0.00887854
0.00087428
0.00171093
0.000126008
0.00012715
2.20857e-05
2.05301e-05
1.68084e-06
6.75944e-06
1.51124e-05
2.82433e-05
4.60681e-05
6.52233e-05
7.74712e-05
7.84714e-05
3.78066e-05
1.63815e-05
1.11499e-05
1.33635e-05
1.6302e-05
2.09979e-05
2.58405e-05
3.20921e-05
4.09927e-05
5.00778e-05
5.53548e-05
4.19668e-05
3.31869e-05
3.27884e-05
4.55634e-05
2.88699e-05
3.1441e-05
3.41169e-05
3.6201e-05
3.62557e-05
3.49941e-05
3.45367e-05
3.52726e-05
3.79142e-05
4.26852e-05
5.246e-05
6.49645e-05
8.43298e-05
0.000106032
0.00013105
0.000156659
0.000183343
0.000217223
0.000266192
0.000319531
0.000381107
0.000499501
0.000512173
0.000555415
0.000680606
0.00086235
0.000773833
0.00133934
0.000655291
0.00167939
0.000526497
0.000880412
0.000253828
0.000415735
0.000134816
0.000214811
8.46271e-05
0.000121974
8.92172e-05
0.000143692
0.000191835
0.00029306
0.000434229
0.000502191
0.000612228
0.000671789
0.000900708
0.000801281
0.00125688
0.000732785
0.00198354
0.000719043
0.00108226
0.00017876
0.000266081
4.47712e-05
5.59069e-05
7.72286e-06
8.01385e-06
2.35798e-07
1.17459e-08
2.77242e-09
4.71004e-10
6.30769e-11
9.65522e-12
2.59316e-12
1.09281e-12
4.07632e-13
1.27885e-13
3.5687e-14
1.01084e-14
2.19366e-15
3.39753e-16
3.80379e-17
2.06643e-18
4.15753e-20
3.779e-22
6.54361e-25
6.6108e-28
1.23373e-31
1.14108e-35
1.5399e-39
4.3755e-43
1.11419e-46
2.24608e-50
3.61447e-54
4.84925e-58
5.60498e-62
5.71918e-66
5.24053e-70
4.36358e-74
3.33554e-78
2.35946e-82
1.55397e-86
9.57496e-91
5.54666e-95
3.03102e-99
1.56739e-103
7.69545e-108
3.59823e-112
1.60491e-116
6.84681e-121
2.80086e-125
1.10071e-129
4.16317e-134
1.51929e-138
5.36481e-143
1.83579e-147
6.1074e-152
1.98236e-156
6.29138e-161
1.96036e-165
6.01522e-170
1.82404e-174
-1.27443e-178
-1.74168e-178
-8.0621e-179
-2.55451e-179
-6.4179e-180
-1.35805e-180
-2.4982e-181
-4.07935e-182
-6.00408e-183
-8.05999e-184
-9.96376e-185
-1.14352e-185
-1.2272e-186
-1.23963e-187
-1.1861e-188
-1.08167e-189
-9.46045e-191
-7.98443e-192
-6.54141e-193
-5.23043e-194
-4.09998e-195
-3.16068e-196
-2.40029e-197
-1.79607e-198
-1.32293e-199
-9.57555e-201
-6.7973e-202
-4.72305e-203
-3.20722e-204
-2.12593e-205
-1.37455e-206
-8.66538e-208
-5.32611e-209
-3.19227e-210
-1.8664e-211
-1.06493e-212
-5.93301e-214
-3.22946e-215
-1.71853e-216
-8.94628e-218
-4.55905e-219
-2.27585e-220
-1.1136e-221
-5.3446e-223
-2.51738e-224
-1.16427e-225
-5.28992e-227
-2.36225e-228
-1.03717e-229
-4.47881e-231
-1.90269e-232
-7.95319e-234
-3.27147e-235
-1.32435e-236
-5.27648e-238
-2.06912e-239
-7.98655e-241
-3.03458e-242
-1.13512e-243
-4.18048e-245
-1.51592e-246
-5.41265e-248
-1.90296e-249
-6.58768e-251
-2.24552e-252
-7.53655e-254
-2.49063e-255
-8.1047e-257
-2.59711e-258
-8.19643e-260
-2.548e-261
-7.80306e-263
-2.35431e-264
-6.99913e-266
-2.05043e-267
-5.91979e-269
-1.68446e-270
-4.72414e-272
-1.30594e-273
-3.55874e-275
-9.56061e-277
-2.53248e-278
-6.61514e-280
-1.70424e-281
-4.331e-283
-1.08587e-284
-2.68636e-286
-6.55868e-288
-1.58047e-289
-3.75949e-291
-8.82899e-293
-2.04741e-294
-4.68909e-296
-1.06083e-297
-2.37122e-299
-5.23803e-301
-1.14378e-302
-2.4695e-304
-5.27335e-306
-1.11483e-307
-2.31235e-309
-6.70767e-311
0
0
0
0
0
0
0
0
0
0
0
0
0
0
0
0
0
0
0
0
0
0
0
0
0
0
0
0
0
0
0
0
0
0
0
0
0
0
0
0
0
0
0
0
0
0
0
0
0
0
0
0
0
0
0
0
0
0
0
0
0
0
0
0
0
0
0
0
0
0
0
0
0
0
0
0
0
0
0
0
0
0
0
0
0
0
0
0
0
0
0
0
0
0
0
0
0
0
0
0
0
0
0
0
0
0
0
0
0
0
0
0
0
0
0
0
0
0
0
0
0
0
0
0
0
0
0
0
0
0
0
0
0
0
0
0
0
0
0
0
0
0
0
0
0
0
0
0
0
0.000397136
4.29272e-07
2.04543e-11
8.37572e-20
2.64755e-22
1.04331e-24
4.96305e-27
1.54724e-41
1.99155e-37
9.13127e-39
6.9102e-44
6.66966e-44
1.63381e-46
2.30315e-46
1.73313e-45
8.51031e-45
2.38275e-44
5.01347e-44
7.35696e-44
8.50007e-44
5.68686e-44
1.6829e-44
2.98248e-45
4.79161e-46
1.03559e-46
9.96072e-43
2.76404e-42
2.42415e-43
9.41326e-45
2.35925e-27
4.53116e-25
1.58269e-22
6.80397e-20
5.92235e-11
7.21737e-07
0.000584506
0
0
0
0
0
0
0
0
0
0
0
0
0
0
0
0
0
0
0
0
0
0
0
0
0
0
0
0
0
0
0
0
0
0
0
0
0
0
0
0
0
0
0
0
0
0
0
0
0
0
0
0
0
0
0
0
0
0
0
0
0
0
0
0
0
0
0
0
0
0
0
0
0
0
0
0
0
0
0
0
0
0
0
0
0
0
0
0
0
0
0
0
0
0
0
0
0
0
0
0
0
0
0
0
0
0
0
0
0
0
0
0
0
0
0
0
0.0003098
0.00137663
0.000459669
0.00115747
0.00012218
0.000155493
1.00232e-06
1.09148e-06
6.71854e-09
2.73917e-08
1.28204e-10
3.12097e-10
2.0519e-09
2.32993e-09
2.63337e-08
7.04134e-08
1.18093e-07
1.52283e-07
3.1607e-08
3.86133e-09
1.77198e-09
1.75688e-09
1.56882e-09
1.40302e-09
1.33052e-09
1.36361e-09
2.22841e-09
5.18632e-09
8.4599e-09
8.39852e-09
2.03843e-09
2.38514e-09
7.11392e-09
1.6771e-09
1.74355e-09
1.486e-09
1.33387e-09
2.81096e-09
4.00212e-08
2.52684e-07
7.59437e-07
1.61918e-06
3.15438e-06
6.2981e-06
1.28459e-05
2.44318e-05
4.00539e-05
5.5098e-05
6.50484e-05
6.93985e-05
7.00251e-05
6.30638e-05
5.30919e-05
4.83333e-05
5.01693e-05
5.64069e-05
4.68116e-05
5.06352e-05
9.80783e-05
8.50675e-05
0.0001434
7.36245e-05
9.62143e-05
3.89315e-05
5.41109e-05
1.44282e-05
2.3809e-05
1.01095e-05
2.59293e-05
3.78584e-05
5.10462e-05
5.22042e-05
4.99102e-05
4.97184e-05
4.65007e-05
4.53519e-05
4.39106e-05
6.9724e-05
9.85879e-05
0.000179764
0.000151085
0.00023051
0.000131624
0.000187895
9.00211e-05
8.84745e-05
7.39815e-06
1.16328e-05
2.85314e-07
4.81081e-07
1.75914e-09
5.73036e-11
4.1627e-12
2.30983e-16
1.9518e-17
3.36126e-26
3.81064e-19
8.28185e-21
3.80833e-28
7.46849e-22
1.16216e-22
1.85787e-30
3.52627e-23
7.36341e-24
4.0655e-33
1.10319e-24
4.26444e-26
2.45613e-27
7.75284e-38
8.73678e-30
1.23713e-33
1.01352e-35
2.28183e-37
2.13077e-39
6.55831e-42
4.13294e-45
4.4755e-49
4.58e-53
4.56913e-57
4.40078e-61
4.09849e-65
3.70778e-69
3.25918e-73
2.78269e-77
2.30357e-81
1.84238e-85
1.42107e-89
1.05524e-93
7.53777e-98
5.17872e-102
3.42214e-106
2.17751e-110
1.33371e-114
7.87245e-119
4.4837e-123
2.46274e-127
1.30627e-131
6.69193e-136
3.31559e-140
1.58759e-144
7.3546e-149
3.30012e-153
1.43304e-157
6.02893e-162
2.45973e-166
9.73212e-171
3.73307e-175
8.90376e-180
-3.85483e-180
-1.84033e-180
-7.08138e-181
-2.28851e-181
-6.41714e-182
-1.59195e-182
-3.54519e-183
-7.16797e-184
-1.32775e-184
-2.26983e-185
-3.6031e-186
-5.33856e-187
-7.41618e-188
-9.69715e-189
-1.19761e-189
-1.40128e-190
-1.55766e-191
-1.64909e-192
-1.66657e-193
-1.61107e-194
-1.49261e-195
-1.32768e-196
-1.13573e-197
-9.3577e-199
-7.43719e-200
-5.70944e-201
-4.23929e-202
-3.04825e-203
-2.12516e-204
-1.43816e-205
-9.45727e-207
-6.04964e-208
-3.76826e-209
-2.28782e-210
-1.35511e-211
-7.83735e-213
-4.42963e-214
-2.4485e-215
-1.32459e-216
-7.01773e-218
-3.64343e-219
-1.85466e-220
-9.26136e-222
-4.53858e-223
-2.18351e-224
-1.03161e-225
-4.78761e-227
-2.18305e-228
-9.78207e-230
-4.30812e-231
-1.86502e-232
-7.93712e-234
-3.32086e-235
-1.36606e-236
-5.5251e-238
-2.19733e-239
-8.5935e-241
-3.30525e-242
-1.25038e-243
-4.65297e-245
-1.70335e-246
-6.13486e-248
-2.17403e-249
-7.58093e-251
-2.60141e-252
-8.78539e-254
-2.92026e-255
-9.55521e-257
-3.07816e-258
-9.7642e-260
-3.05022e-261
-9.38481e-263
-2.84427e-264
-8.49228e-266
-2.49832e-267
-7.24251e-269
-2.06909e-270
-5.82577e-272
-1.6168e-273
-4.42322e-275
-1.19303e-276
-3.17287e-278
-8.3214e-280
-2.15249e-281
-5.49215e-283
-1.38247e-284
-3.4335e-286
-8.41474e-288
-2.03523e-289
-4.85863e-291
-1.14498e-292
-2.66397e-294
-6.1203e-296
-1.38867e-297
-3.11228e-299
-6.89109e-301
-1.50767e-302
-3.25998e-304
-6.96817e-306
-1.4724e-307
-3.03457e-309
-1.06971e-310
-8.13058e-312
0
0
0
0
0
0
0
0
0
0
0
0
0
0
0
0
0
0
0
0
0
0
0
0
0
0
0
0
0
0
0
0
0
0
0
0
0
0
0
0
0
0
0
0
0
0
0
0
0
0
0
0
0
0
0
0
-2.5707e-311
-3.00026e-310
-1.61137e-308
-7.95297e-307
-3.88797e-305
-1.8804e-303
-8.99422e-302
-4.25344e-300
-1.98822e-298
-9.18396e-297
-4.1913e-295
-1.88948e-293
-8.41296e-292
-3.69916e-290
-1.60601e-288
-6.88376e-287
-2.91264e-285
-1.2164e-283
-5.01358e-282
-2.03918e-280
-8.18377e-279
-3.24038e-277
-1.26574e-275
-4.87711e-274
-1.85356e-272
-6.94764e-271
-2.56809e-269
-9.36014e-268
-3.3636e-266
-1.1916e-264
-4.1612e-263
-1.43229e-261
-4.85871e-260
-1.62413e-258
-5.34896e-257
-1.73549e-255
-5.54672e-254
-1.74613e-252
-5.41367e-251
-1.65277e-249
-4.96806e-248
-1.47015e-246
-4.28245e-245
-1.22781e-243
-3.46446e-242
-9.61968e-241
-2.62826e-239
-7.06531e-238
-1.86862e-236
-4.86196e-235
-1.24447e-233
-3.13339e-232
-7.76032e-231
-1.8904e-229
-4.52909e-228
-1.06713e-226
-2.47248e-225
-5.63256e-224
-1.26149e-222
-2.77714e-221
-6.0085e-220
-1.2773e-218
-2.66716e-217
-5.46881e-216
-1.10066e-214
-2.17337e-213
-4.20818e-212
-7.98503e-211
-1.4839e-209
-2.69883e-208
-4.80034e-207
-8.34354e-206
-1.41596e-204
-2.3442e-203
-3.78251e-202
-5.9428e-201
-9.08228e-200
-1.34881e-198
-1.94445e-197
-2.71791e-196
-3.67931e-195
-4.81796e-194
-6.095e-193
-7.43906e-192
-8.7475e-191
-9.89515e-190
-1.07508e-188
-1.11994e-187
-1.11658e-186
-1.06331e-185
-9.65079e-185
-8.32849e-184
-6.81609e-183
-5.27486e-182
-3.84753e-181
-2.6355e-180
-1.68828e-179
-1.00657e-178
-5.55432e-178
-2.81787e-177
-1.30383e-176
-5.44718e-176
-2.02794e-175
-6.60781e-175
-1.83929e-174
-4.25486e-174
-5.47556e-174
8.00405e-171
2.02776e-166
4.97747e-162
1.18487e-157
2.73265e-153
6.09897e-149
1.31849e-144
2.75771e-140
5.57434e-136
1.08979e-131
2.05786e-127
3.75271e-123
6.60025e-119
1.12019e-114
1.8324e-110
2.88564e-106
4.3763e-102
6.38438e-98
8.95904e-94
1.20947e-89
1.57201e-85
1.97057e-81
2.3867e-77
2.80323e-73
3.19909e-69
3.54922e-65
3.82795e-61
3.9951e-57
4.028e-53
3.95013e-49
3.69834e-45
5.97258e-42
1.95416e-39
2.08923e-37
9.25003e-36
1.10301e-33
7.67548e-30
7.02501e-38
2.39333e-27
4.3991e-26
1.29832e-24
4.01598e-33
8.64244e-24
3.93666e-23
1.71963e-30
1.26603e-22
7.64424e-22
3.52497e-28
7.74016e-21
3.53335e-19
3.10302e-26
1.81994e-17
2.11677e-16
1.82942e-12
3.41116e-11
8.61423e-10
5.00041e-07
3.07414e-07
1.15061e-05
7.4755e-06
8.54342e-05
8.84137e-05
0.000186799
0.000133695
0.000231772
0.000151478
0.000180897
0.000105234
7.44549e-05
4.53118e-05
4.53284e-05
4.52111e-05
4.76951e-05
4.80175e-05
5.08513e-05
5.06355e-05
3.87888e-05
2.72676e-05
1.08158e-05
2.64745e-05
1.61115e-05
6.27495e-05
4.57968e-05
0.000106578
7.72748e-05
0.000148832
8.8627e-05
9.90674e-05
5.28665e-05
4.58387e-05
5.49858e-05
4.8e-05
4.32937e-05
4.70407e-05
5.71678e-05
6.99072e-05
7.05383e-05
6.64028e-05
5.61537e-05
4.12148e-05
2.58716e-05
1.44169e-05
7.57904e-06
3.98412e-06
2.03702e-06
9.37984e-07
3.457e-07
9.20728e-08
1.5841e-08
8.06466e-09
7.55291e-09
1.69962e-08
3.26523e-08
2.98625e-08
1.57533e-08
6.0261e-09
5.10703e-09
5.33727e-09
5.60413e-09
5.64241e-09
5.63163e-09
5.56259e-09
5.31858e-09
4.75599e-09
3.76657e-09
2.36974e-09
1.24859e-09
3.00028e-09
2.03202e-08
8.2134e-08
5.0154e-08
6.43033e-09
1.22862e-10
1.98599e-10
2.28397e-11
2.26601e-11
2.48513e-07
2.21897e-07
2.5612e-06
2.28771e-06
0.000135525
0.000101291
0.000913057
0.000356666
0.00103828
0.000233764
7.97498e-07
4.73351e-11
9.68538e-20
4.83553e-22
1.51893e-24
7.21692e-27
1.51168e-41
5.57883e-38
5.48011e-39
1.22778e-41
1.59838e-44
1.61568e-46
9.12671e-47
7.16305e-46
3.79425e-45
1.08134e-44
2.29664e-44
3.37348e-44
3.87771e-44
2.51668e-44
6.9856e-45
1.18616e-45
2.57794e-46
1.03194e-46
3.33048e-43
4.32219e-43
1.79898e-44
9.41326e-45
3.57879e-27
8.47212e-25
2.01528e-22
9.85013e-20
1.25334e-10
1.32159e-06
3.58278e-06
5.86636e-06
1.10736e-05
1.98147e-06
2.55975e-06
1.24771e-19
1.90806e-14
8.26676e-15
6.04426e-15
4.87742e-15
4.85385e-15
8.29661e-15
5.65387e-15
5.10134e-15
4.21193e-15
3.17827e-15
2.19334e-15
1.39827e-15
8.61211e-16
5.51693e-16
3.94571e-16
3.27604e-16
3.09753e-16
3.10608e-16
6.22674e-16
2.81824e-14
7.09795e-13
6.84364e-12
3.16648e-11
8.40264e-11
1.48837e-10
1.9601e-10
2.14879e-10
2.1811e-10
2.14987e-10
2.27711e-10
9.83297e-09
2.11369e-07
1.08543e-06
1.68581e-06
1.6856e-06
1.02054e-06
3.94377e-07
3.09255e-07
2.44424e-07
1.66799e-07
1.25232e-07
1.04968e-07
9.19217e-08
8.41583e-08
8.25557e-08
8.40622e-08
9.52479e-08
1.38647e-07
1.85665e-07
1.55343e-07
2.02776e-07
5.80951e-07
8.54578e-07
1.32643e-06
8.27508e-07
1.53877e-06
3.40451e-06
6.75628e-06
8.17645e-06
5.64585e-06
1.48622e-06
8.43827e-07
5.62154e-07
3.48484e-07
2.43269e-07
1.78829e-07
1.25079e-07
9.9263e-08
9.64222e-08
1.23151e-07
4.8569e-07
1.69428e-06
4.12625e-06
5.08158e-06
6.6214e-06
3.28959e-06
3.44176e-06
1.41746e-06
7.43922e-07
1.10564e-08
1.70953e-08
7.28702e-13
2.15387e-13
1.74177e-14
2.40449e-17
3.24339e-19
1.31762e-24
1.25279e-25
3.33829e-26
7.1967e-27
1.80619e-27
3.78148e-28
6.64747e-29
1.16618e-29
1.84434e-30
2.45732e-31
2.11839e-32
4.03935e-33
9.44594e-34
1.15539e-42
5.61807e-36
7.69495e-38
8.91715e-39
7.89759e-41
2.0832e-42
4.71445e-44
1.01911e-45
9.24e-48
1.71339e-50
3.54039e-54
2.40812e-58
1.89528e-62
1.58201e-66
1.285e-70
1.06508e-74
8.80983e-79
7.46896e-83
6.50875e-87
5.75332e-91
5.10217e-95
4.47469e-99
3.86284e-103
3.2489e-107
2.62628e-111
2.02201e-115
1.48071e-119
1.0352e-123
6.93404e-128
4.46187e-132
2.76693e-136
1.65516e-140
9.56537e-145
5.34357e-149
2.89033e-153
1.51275e-157
7.66862e-162
3.77082e-166
1.79687e-170
8.31017e-175
3.66706e-179
-4.98138e-181
-2.71572e-181
-1.09892e-181
-3.89241e-182
-1.22271e-182
-3.44873e-183
-8.82585e-184
-2.06692e-184
-4.46074e-185
-8.9239e-186
-1.6632e-186
-2.90049e-187
-4.75113e-188
-7.33495e-189
-1.07051e-189
-1.48104e-190
-1.94714e-191
-2.43812e-192
-2.91361e-193
-3.32918e-194
-3.64355e-195
-3.82544e-196
-3.85875e-197
-3.74466e-198
-3.50048e-199
-3.15578e-200
-2.7468e-201
-2.31067e-202
-1.88043e-203
-1.48178e-204
-1.1316e-205
-8.38194e-207
-6.02671e-208
-4.20957e-209
-2.85844e-210
-1.8881e-211
-1.21391e-212
-7.60095e-214
-4.63778e-215
-2.75896e-216
-1.60102e-217
-9.06727e-219
-5.01405e-220
-2.7085e-221
-1.42983e-222
-7.37959e-224
-3.72516e-225
-1.83988e-226
-8.89457e-228
-4.21027e-229
-1.95207e-230
-8.86798e-232
-3.94852e-233
-1.72368e-234
-7.37926e-236
-3.09903e-237
-1.27706e-238
-5.16516e-240
-2.05095e-241
-7.99712e-243
-3.06287e-244
-1.15251e-245
-4.26165e-247
-1.54892e-248
-5.53458e-250
-1.94462e-251
-6.71994e-253
-2.28431e-254
-7.63992e-256
-2.51455e-257
-8.14614e-259
-2.59794e-260
-8.15752e-262
-2.52235e-263
-7.68142e-265
-2.30437e-266
-6.81089e-268
-1.98353e-269
-5.6925e-271
-1.6101e-272
-4.48887e-274
-1.23371e-275
-3.34299e-277
-8.93205e-279
-2.35349e-280
-6.11604e-282
-1.56773e-283
-3.9643e-285
-9.8901e-287
-2.43457e-288
-5.91394e-290
-1.41779e-291
-3.35487e-293
-7.8363e-295
-1.80704e-296
-4.11424e-298
-9.24967e-300
-2.05364e-301
-4.50331e-303
-9.75488e-305
-2.08758e-306
-4.41252e-308
-8.77329e-310
-7.24122e-311
-1.34276e-311
0
0
0
0
0
0
0
0
0
0
0
0
0
0
0
0
0
0
0
0
0
0
0
0
0
0
0
0
0
0
0
0
0
0
0
0
0
0
0
0
0
0
0
0
0
0
0
0
0
0
0
0
0
0
0
0
0
0
0
0
0
0
0
0
0
0
0
0
0
0
0
0
0
0
0
0
0
0
0
0
0
0
0
0
0
0
0
0
0
0
0
0
0
0
0
0
0
0
0
0
0
0
0
0
0
0
0
0
0
0
0
0
0
0
0
0
0
0
0
0
0
0
0
0
0
0
0
0
0
0
0
0
0
0
0
0
0
0
0
0
0
0
0
0
0
0
0
0
0
0
0
0
0
0
0
0
0
0
0
0
0
0
0
0
0
-2.40572e-312
-2.66101e-311
-1.50928e-310
-4.79802e-309
-2.39476e-307
-1.17199e-305
-5.66849e-304
-2.70892e-302
-1.27888e-300
-5.96343e-299
-2.74624e-297
-1.2488e-295
-5.60693e-294
-2.48542e-292
-1.08765e-290
-4.69858e-289
-2.00358e-287
-8.43296e-286
-3.50315e-284
-1.43619e-282
-5.81045e-281
-2.31961e-279
-9.13673e-278
-3.5506e-276
-1.36115e-274
-5.14707e-273
-1.91964e-271
-7.06054e-270
-2.56074e-268
-9.15693e-267
-3.22804e-265
-1.1217e-263
-3.8416e-262
-1.29658e-260
-4.31211e-259
-1.41282e-257
-4.5595e-256
-1.44916e-254
-4.53545e-253
-1.39755e-251
-4.23916e-250
-1.26549e-248
-3.71728e-247
-1.07422e-245
-3.05332e-244
-8.53451e-243
-2.34541e-241
-6.33578e-240
-1.682e-238
-4.38734e-237
-1.12415e-235
-2.82873e-234
-6.98868e-233
-1.69483e-231
-4.03337e-230
-9.41679e-229
-2.1563e-227
-4.84127e-226
-1.06543e-224
-2.29756e-223
-4.85339e-222
-1.00396e-220
-2.03292e-219
-4.02814e-218
-7.80732e-217
-1.47959e-215
-2.74056e-214
-4.95924e-213
-8.76341e-212
-1.51152e-210
-2.54348e-209
-4.17348e-208
-6.6742e-207
-1.03966e-205
-1.57662e-204
-2.32621e-203
-3.33713e-202
-4.65138e-201
-6.29438e-200
-8.26326e-199
-1.05155e-197
-1.29605e-196
-1.54575e-195
-1.78226e-194
-1.98461e-193
-2.13199e-192
-2.207e-191
-2.19882e-190
-2.10558e-189
-1.93522e-188
-1.7045e-187
-1.43631e-186
-1.15584e-185
-8.86536e-185
-6.46708e-184
-4.4762e-183
-2.93204e-182
-1.81234e-181
-1.0537e-180
-5.74159e-180
-2.92018e-179
-1.37982e-178
-6.02462e-178
-2.41546e-177
-8.8253e-177
-2.91023e-176
-8.55273e-176
-2.20651e-175
-4.79508e-175
4.12818e-176
1.47058e-170
3.09066e-166
6.29498e-162
1.24378e-157
2.38039e-153
4.40828e-149
7.90476e-145
1.37023e-140
2.29487e-136
3.70815e-132
5.776e-128
8.64628e-124
1.24062e-119
1.70042e-115
2.218e-111
2.75759e-107
3.28826e-103
3.82125e-99
4.37213e-95
4.94661e-91
5.60941e-87
6.43928e-83
7.57762e-79
9.11672e-75
1.09247e-70
1.33564e-66
1.58796e-62
2.03726e-58
3.07986e-54
1.58323e-50
8.7906e-48
9.80011e-46
4.40949e-44
1.90258e-42
7.18418e-41
7.9194e-39
6.97235e-38
5.67996e-36
1.04397e-42
1.03687e-33
3.99132e-33
1.75517e-32
2.28887e-31
1.7071e-30
1.07706e-29
6.15146e-29
3.50009e-28
1.67232e-27
6.65304e-27
3.0818e-26
1.15907e-25
1.19539e-24
1.06517e-19
1.21421e-17
5.90375e-15
8.72316e-14
3.26268e-13
1.62899e-08
1.13956e-08
6.92385e-07
1.35718e-06
3.47782e-06
3.45594e-06
6.75144e-06
5.21878e-06
4.35925e-06
2.0019e-06
6.52873e-07
1.50979e-07
9.85162e-08
9.89094e-08
1.19796e-07
1.69936e-07
2.32951e-07
3.34814e-07
5.35383e-07
8.33702e-07
1.54474e-06
5.62632e-06
7.82268e-06
6.7263e-06
3.66366e-06
1.83781e-06
8.81259e-07
1.43192e-06
9.33982e-07
6.50383e-07
2.34375e-07
1.70504e-07
1.95988e-07
1.35602e-07
7.9675e-08
7.33576e-08
7.373e-08
8.08854e-08
9.31533e-08
1.0747e-07
1.27713e-07
1.68021e-07
2.47937e-07
3.24474e-07
3.90784e-07
9.03817e-07
1.79235e-06
1.80147e-06
9.64777e-07
1.65355e-07
7.71361e-09
1.99258e-10
1.89758e-10
1.98332e-10
2.04151e-10
1.93395e-10
1.50583e-10
8.47248e-11
3.13667e-11
6.61634e-12
6.34043e-13
2.15136e-14
1.12511e-15
9.5383e-16
9.53394e-16
9.60046e-16
1.02638e-15
1.39356e-15
1.85532e-15
2.35852e-15
2.8774e-15
3.41195e-15
3.93182e-15
4.36893e-15
4.60561e-15
5.04041e-15
4.42349e-15
4.7113e-15
5.68499e-15
6.90345e-15
3.81775e-10
8.55241e-10
1.96836e-06
1.41785e-06
5.9534e-06
3.08775e-06
1.88194e-06
1.12664e-10
1.26801e-19
5.30989e-22
2.2716e-24
1.02049e-26
1.47789e-41
4.08159e-39
2.14383e-39
6.18956e-45
5.89024e-45
8.30318e-47
2.96634e-47
2.41428e-46
1.38213e-45
4.02037e-45
8.65184e-45
1.27206e-44
1.45139e-44
9.04775e-45
2.30412e-45
3.79964e-46
1.30996e-46
1.02822e-46
8.75796e-44
9.30296e-44
6.16967e-45
2.09412e-31
5.52206e-27
1.5071e-24
1.35329e-23
1.62852e-19
2.81734e-10
0
5.13506e-10
8.98242e-10
1.35721e-09
2.03473e-09
1.23879e-19
3.87933e-17
3.23297e-17
2.46311e-17
2.06563e-17
1.70917e-17
1.38456e-17
1.03536e-17
7.55818e-18
5.99244e-18
5.54744e-18
1.14206e-17
1.08075e-16
6.44314e-16
1.89961e-15
3.42077e-15
4.5569e-15
5.21624e-15
5.93344e-15
2.52732e-14
1.28272e-12
2.07822e-11
1.17429e-10
3.29864e-10
5.93446e-10
7.92027e-10
8.73843e-10
8.84029e-10
8.82174e-10
7.88436e-10
5.60603e-10
3.70329e-10
2.50838e-10
1.57347e-10
8.91613e-11
4.4635e-11