/*--------------------------------*- C++ -*----------------------------------*\
| =========                 |                                                 |
| \\      /  F ield         | OpenFOAM: The Open Source CFD Toolbox           |
|  \\    /   O peration     | Version:  2.2.1                                 |
|   \\  /    A nd           | Web:      www.OpenFOAM.org                      |
|    \\/     M anipulation  |                                                 |
\*---------------------------------------------------------------------------*/
FoamFile
{
    version     2.0;
    format      ascii;
    class       volScalarField;
    location    "5e-05";
    object      p;
}
// * * * * * * * * * * * * * * * * * * * * * * * * * * * * * * * * * * * * * //

dimensions      [1 -1 -2 0 0 0 0];

internalField   nonuniform List<scalar> 
22464
(
22.7032
124.168
1182.65
9277.51
456.546
868.332
273.449
144.184
7.2065
-11.4663
-1.56586
-0.725562
2.53969
32.9447
52.2839
58.7134
55.2229
42.4851
30.0571
24.3453
23.366
27.5007
31.4584
36.7613
42.1285
46.7847
48.624
48.3903
44.7023
40.0964
36.1201
34.9332
35.3725
34.9373
34.9543
35.5829
37.9943
39.0354
40.4139
41.1279
41.2625
40.9861
39.7452
38.9988
37.9373
37.5193
36.6451
35.4541
33.3418
31.0472
28.6961
26.8676
25.3245
23.875
23.6975
24.8605
17.6672
13.1412
21.3955
44.6401
53.2292
82.3422
164.438
209.642
552.606
127.546
193.214
26.846
36.6147
6.93542
2.78035
5.7699
8.75213
11.1004
17.5323
20.0093
20.4901
18.4578
16.1472
29.0934
35.2609
50.1316
47.2035
124.788
216.655
574.307
155.889
300.701
42.1235
31.8977
8.25399
4.96198
7.21801
9.16759
11.1147
11.2816
10.4761
9.48931
8.55697
7.63787
6.82621
6.23065
5.85929
5.66464
5.57799
5.54275
5.52454
5.50997
5.49463
5.47799
5.46072
5.44293
5.42463
5.40584
5.38657
5.36686
5.3467
5.32614
5.30518
5.28383
5.26212
5.24005
5.21764
5.19489
5.17182
5.14844
5.12475
5.10076
5.07649
5.05194
5.02712
5.00203
4.97669
4.95109
4.92525
4.89917
4.87285
4.8463
4.81953
4.79254
4.76534
4.73794
4.71033
4.68252
4.65452
4.62634
4.59796
4.56941
4.54068
4.51178
4.48271
4.45347
4.42408
4.39452
4.36482
4.33497
4.30498
4.27484
4.24457
4.21417
4.18363
4.15296
4.12216
4.09123
4.06018
4.02901
3.99772
3.96632
3.93481
3.90319
3.87147
3.83964
3.80772
3.7757
3.74358
3.71137
3.67908
3.64669
3.61422
3.58166
3.54903
3.5163
3.4835
3.45061
3.41765
3.38461
3.35149
3.31829
3.28503
3.25169
3.21828
3.1848
3.15126
3.11765
3.08398
3.05025
3.01646
2.98261
2.94871
2.91474
2.88072
2.84664
2.8125
2.7783
2.74406
2.70975
2.6754
2.64099
2.60653
2.57202
2.53746
2.50285
2.4682
2.4335
2.39876
2.36397
2.32915
2.29429
2.25939
2.22446
2.1895
2.15451
2.11949
2.08445
2.04938
2.0143
1.97921
1.9441
1.90899
1.87387
1.83874
1.80363
1.76851
1.73341
1.69832
1.66325
1.62821
1.59319
1.5582
1.52324
1.48833
1.45346
1.41864
1.38387
1.34917
1.31453
1.27997
1.24548
1.21108
1.17677
1.14255
1.10843
1.07442
1.04053
1.00676
0.973116
0.939608
0.906241
0.873019
0.839949
0.807032
0.774274
0.741677
0.709243
0.676974
0.644868
0.612922
0.581127
0.549472
0.517941
0.486521
0.455207
0.42401
0.392924
0.361932
0.331026
0.30033
0.269772
0.239147
0.208972
0.177438
0.145035
0.110781
0.0752477
0.0406052
0.0402409
0.0753381
0.111389
0.145471
0.177658
0.207787
0.238224
0.268644
0.299209
0.3299
0.360714
0.391646
0.422686
0.453832
0.485097
0.516486
0.548013
0.579692
0.611533
0.643542
0.675717
0.708054
0.740545
0.773181
0.805957
0.838866
0.871908
0.905081
0.938388
0.97183
1.00541
1.03912
1.07298
1.10696
1.14108
1.17532
1.20969
1.24416
1.27873
1.3134
1.34815
1.38298
1.41787
1.45282
1.48782
1.52286
1.55794
1.59304
1.62817
1.66331
1.69847
1.73363
1.7688
1.80397
1.83914
1.8743
1.90945
1.94459
1.97971
2.01482
2.04991
2.08497
2.12001
2.15503
2.19001
2.22496
2.25988
2.29477
2.32962
2.36442
2.39919
2.43392
2.4686
2.50324
2.53784
2.57239
2.60689
2.64134
2.67575
2.7101
2.74441
2.77866
2.81285
2.847
2.88108
2.91512
2.94909
2.983
3.01685
3.05065
3.08438
3.11805
3.15165
3.18519
3.21866
3.25206
3.2854
3.31866
3.35184
3.38496
3.41799
3.45095
3.48383
3.51664
3.54936
3.582
3.61456
3.64704
3.67943
3.71173
3.74394
3.77606
3.80808
3.84001
3.87183
3.90356
3.93518
3.96669
3.99809
4.02938
4.06055
4.09161
4.12254
4.15334
4.18401
4.21456
4.24497
4.27524
4.30538
4.33537
4.36522
4.39492
4.42446
4.45385
4.48307
4.51214
4.54103
4.56976
4.59831
4.62669
4.65489
4.6829
4.71072
4.73835
4.76578
4.79301
4.82002
4.84682
4.87341
4.89976
4.92589
4.95178
4.97742
5.00281
5.02795
5.05282
5.07741
5.10173
5.12576
5.1495
5.17294
5.19606
5.21886
5.24134
5.26347
5.28525
5.30668
5.32773
5.3484
5.36867
5.38854
5.40797
5.42695
5.44546
5.46348
5.481
5.49789
5.5135
5.5283
5.54667
5.58182
5.66785
5.86102
6.22993
6.82334
7.63531
8.55939
9.49419
10.4468
11.2982
11.0766
9.16314
7.12173
4.92299
8.20659
31.6971
41.1873
294.06
153.839
580.002
215.769
125.217
49.1297
53.2277
35.1082
28.4383
16.0788
18.5371
20.621
20.2746
17.7634
10.8628
7.8815
5.52758
2.7428
6.90149
38.3839
27.6042
196.766
122.788
553.652
198.594
157.861
80.909
51.061
43.4895
20.8127
11.9417
16.2705
24.3896
25.5721
25.6484
25.4163
26.8583
29.2095
33.0906
36.4351
38.3535
38.5919
37.8146
36.1849
35.5002
35.211
35.2916
36.7635
37.5431
38.8994
39.7055
40.4276
40.07
40.783
39.8162
38.1171
36.0916
34.432
33.0547
31.8269
31.3472
31.6093
32.7787
34.9128
37.6701
41.2977
45.5445
51.4469
52.6318
51.4558
54.4955
57.256
54.6203
44.1573
29.4353
4.64887
-5.10474
-1.46701
-7.38308
7.45857
118.354
222.719
724.588
374.87
7420.66
960.803
109.994
22.9419
0.0369492
0.0335114
0.0306302
0.0275025
0.0247313
0.0218571
0.019292
0.0174958
0.0163468
0.0155531
0.0148915
0.0142359
0.0135199
0.0127018
0.0117581
0.0106792
0.00946197
0.00810552
0.00660945
0.00497319
0.00319626
0.0012789
-0.000777747
-0.00297133
-0.00529832
-0.00775391
-0.0103322
-0.0130261
-0.0158274
-0.018727
-0.0217149
-0.02478
-0.0279107
-0.0310945
-0.0343182
-0.0375684
-0.0408308
-0.0440911
-0.0473346
-0.0505465
-0.0537117
-0.0568156
-0.0598435
-0.0627807
-0.0656131
-0.0683269
-0.0709088
-0.0733462
-0.0756268
-0.0777395
-0.0796735
-0.0814193
-0.082968
-0.0843118
-0.085444
-0.0863588
-0.0870516
-0.0875189
-0.0877581
-0.0877683
-0.0875491
-0.0871018
-0.0864284
-0.0855326
-0.0844186
-0.0830922
-0.0815597
-0.0798291
-0.0779087
-0.0758082
-0.0735379
-0.071109
-0.0685334
-0.0658236
-0.0629929
-0.060055
-0.057024
-0.0539144
-0.0507408
-0.0475183
-0.0442617
-0.0409862
-0.0377067
-0.0344379
-0.0311944
-0.0279902
-0.0248391
-0.0217541
-0.0187477
-0.0158314
-0.0130159
-0.0103106
-0.00772403
-0.00526298
-0.00293311
-0.000738414
0.00131855
0.00323653
0.0050154
0.00665593
0.00815964
0.00952872
0.0107658
0.0118742
0.0128632
0.0137436
0.0145206
0.0151218
0.0154078
0.0153494
0.0152799
0.0158588
0.0173953
0.0191464
0.0221016
0.0272731
0.0319375
0.0362954
35.2034
-4.56493
0.539022
-0.144398
-0.697943
-0.772089
-0.734328
-0.675915
-0.610288
-0.544759
-0.484599
-0.432133
-0.387825
-0.351308
-0.321882
-0.298798
-0.281389
-0.269109
-0.261589
-0.258658
-0.260354
-0.266935
-0.27892
-0.297026
-0.32194
-0.354236
-0.394663
-0.444114
-0.502822
-0.569057
-0.638065
-0.703055
-0.75073
-0.674844
-0.0379452
0.696956
-4.93201
42.0661
0.0668976
0.102356
0.13658
0.169748
0.199618
0.2302
0.260848
0.291797
0.322882
0.354083
0.385367
0.416724
0.448154
0.479678
0.511298
0.543028
0.57488
0.606868
0.639001
0.67128
0.703704
0.736268
0.768966
0.801795
0.83475
0.86783
0.901035
0.934365
0.967822
1.00141
1.03512
1.06896
1.10292
1.13701
1.17122
1.20553
1.23995
1.27447
1.30908
1.34376
1.37852
1.41334
1.44822
1.48315
1.51811
1.55312
1.58815
1.6232
1.65827
1.69336
1.72845
1.76355
1.79865
1.83374
1.86884
1.90392
1.93899
1.97405
2.00909
2.04411
2.07911
2.11408
2.14903
2.18395
2.21884
2.2537
2.28852
2.32331
2.35806
2.39276
2.42743
2.46206
2.49664
2.53117
2.56566
2.60011
2.6345
2.66885
2.70315
2.73739
2.77159
2.80573
2.83982
2.87385
2.90782
2.94173
2.97559
3.00938
3.04312
3.07679
3.1104
3.14394
3.17742
3.21083
3.24417
3.27744
3.31063
3.34375
3.3768
3.40977
3.44266
3.47547
3.50821
3.54086
3.57343
3.60592
3.63833
3.67064
3.70287
3.73501
3.76705
3.79899
3.83084
3.86259
3.89423
3.92577
3.9572
3.98852
4.01972
4.05081
4.08177
4.11261
4.14332
4.17391
4.20435
4.23467
4.26485
4.29488
4.32478
4.35452
4.38411
4.41355
4.44283
4.47195
4.5009
4.52968
4.55829
4.58673
4.61499
4.64307
4.67096
4.69865
4.72616
4.75345
4.78055
4.80743
4.83409
4.86053
4.88674
4.91271
4.93845
4.96393
4.98915
5.01412
5.03881
5.06322
5.08734
5.11116
5.13468
5.15789
5.18077
5.20331
5.2255
5.24732
5.26877
5.28982
5.31046
5.33067
5.35042
5.36969
5.38842
5.40657
5.42406
5.44079
5.45663
5.4713
5.48424
5.49415
5.49879
5.49545
5.4828
5.46264
5.43959
5.41837
5.40183
5.38511
5.35084
5.24562
5.17919
4.9664
5.46517
4.79812
5.23642
2.26536
7.5107
0.388154
35.796
16.6949
70.2573
10.4489
31.1334
20.3338
20.8929
12.0701
9.2889
9.15998
8.13552
4.94474
4.48376
4.54156
5.17652
5.98513
4.28758
4.89297
1.69471
9.45082
3.05048
25.6438
7.78902
51.411
7.87761
33.3278
14.6671
15.2205
9.2605
5.56194
8.3702
8.65886
4.00466
3.63353
4.74984
5.94466
6.47874
6.34558
5.88233
5.2753
4.77347
4.56267
4.60582
4.7528
4.8475
4.90294
4.88121
4.85963
4.83676
4.84094
4.76657
4.76709
4.67901
4.52141
4.39604
4.39535
4.30272
4.19881
4.10573
4.04359
3.96878
3.88899
3.80763
3.76308
3.74537
3.79504
3.72377
3.70965
3.91522
4.27024
3.83314
2.87534
2.04273
0.700581
-1.44118
-2.42164
4.5051
-0.907294
-3.1097
-12.5597
7.88573
-10.248
280.906
-38.2474
551.77
-160.097
-22.2859
-28.976
-195.561
698.246
-49.8395
343.52
-11.8121
9.16012
-17.8329
-4.52388
-1.61815
4.07723
-3.45457
-2.11636
0.463718
1.78858
2.45212
3.18225
3.99355
4.64313
4.22049
3.87671
3.64028
3.669
3.63643
3.75811
3.86285
3.97707
4.14403
4.40118
4.68111
4.63289
4.55803
4.55631
5.04517
4.66784
4.70781
4.61265
4.72755
4.7517
4.80813
4.84213
4.89813
4.91552
4.82732
4.71251
4.68711
4.94163
5.42709
5.94375
6.19685
6.15133
5.86827
5.35371
4.4715
4.35494
8.65753
8.6432
6.13279
9.84842
16.078
15.1808
33.4962
8.06531
48.4637
7.27794
23.9857
2.93767
9.41906
1.72508
4.95231
4.2566
5.93611
5.23721
4.69871
4.61648
5.01533
8.12803
9.0818
9.28513
12.241
20.8102
19.7176
30.52
10.2538
71.5707
17.0763
36.582
0.25588
7.42677
2.17837
5.21542
4.77596
5.45632
4.96164
5.16328
5.24033
5.34282
5.38095
5.39699
5.41344
5.4346
5.45775
5.47814
5.49107
5.49471
5.49038
5.48076
5.4681
5.45369
5.43811
5.42161
5.40434
5.38638
5.36781
5.34869
5.32906
5.30895
5.28839
5.26742
5.24604
5.22427
5.20214
5.17965
5.15682
5.13366
5.11018
5.0864
5.06232
5.03795
5.01331
4.98839
4.96321
4.93778
4.91209
4.88616
4.85998
4.83358
4.80695
4.78009
4.75302
4.72575
4.69827
4.67058
4.64271
4.61464
4.58639
4.55795
4.52934
4.50055
4.47159
4.44246
4.41317
4.38372
4.35412
4.32438
4.29448
4.26445
4.23428
4.20397
4.17352
4.14294
4.11224
4.0814
4.05044
4.01935
3.98815
3.95684
3.92541
3.89387
3.86223
3.83048
3.79864
3.7667
3.73466
3.70252
3.6703
3.63799
3.60559
3.57311
3.54054
3.50789
3.47515
3.44233
3.40943
3.37646
3.3434
3.31027
3.27707
3.24379
3.21044
3.17703
3.14355
3.11
3.07639
3.04272
3.00899
2.9752
2.94135
2.90745
2.87348
2.83946
2.80538
2.77124
2.73705
2.70281
2.66851
2.63416
2.59976
2.56531
2.53081
2.49626
2.46167
2.42703
2.39235
2.35763
2.32287
2.28808
2.25324
2.21838
2.18348
2.14856
2.11361
2.07863
2.04364
2.00863
1.9736
1.93857
1.90352
1.86847
1.83342
1.79837
1.76333
1.7283
1.69328
1.65828
1.62331
1.58835
1.55343
1.51854
1.48369
1.44889
1.41413
1.37942
1.34478
1.3102
1.27569
1.24125
1.20689
1.17262
1.13844
1.10435
1.07037
1.0365
1.00274
0.969107
0.935598
0.902221
0.86898
0.835879
0.802922
0.77011
0.737446
0.70493
0.672562
0.64034
0.608258
0.576308
0.544477
0.512747
0.481097
0.449531
0.418069
0.386652
0.355268
0.323961
0.2929
0.262222
0.231402
0.201477
0.168768
0.136032
0.101732
0.0669473
0.0594273
0.0550891
0.0530065
0.0542549
0.0544315
0.0526965
0.051222
0.0502807
0.049553
0.0488538
0.0481383
0.0473926
0.0465652
0.0456226
0.0445549
0.0433614
0.0420441
0.0406042
0.0390412
0.0373537
0.0355406
0.0336017
0.0315383
0.029353
0.02705
0.0246344
0.0221127
0.0194922
0.0167816
0.01399
0.0111276
0.00820502
0.00523394
0.00222639
-0.000805008
-0.00384722
-0.00688687
-0.00991042
-0.0129042
-0.0158543
-0.018747
-0.0215688
-0.0243062
-0.026946
-0.0294755
-0.0318824
-0.0341547
-0.0362812
-0.0382514
-0.0400555
-0.0416844
-0.0431299
-0.0443849
-0.045443
-0.0462988
-0.046948
-0.0473874
-0.0476146
-0.0476287
-0.0474293
-0.0470177
-0.0463957
-0.0455668
-0.0445349
-0.0433052
-0.041884
-0.0402781
-0.0384954
-0.0365449
-0.0344359
-0.0321787
-0.0297842
-0.0272639
-0.0246299
-0.0218947
-0.0190714
-0.0161731
-0.0132132
-0.0102053
-0.00716329
-0.004101
-0.00103234
0.00202885
0.00506885
0.00807428
0.0110319
0.0139289
0.016753
0.0194926
0.0221374
0.0246777
0.0271058
0.0294153
0.0316018
0.033663
0.0355987
0.0374099
0.039099
0.0406684
0.0421215
0.0434613
0.0446897
0.0458068
0.0468131
0.0477339
0.0485496
0.0492449
0.0498429
0.0504799
0.0513707
0.0532807
0.056627
0.0549568
0.0498169
0.0529599
0.0586991
9.62481
1.14581
-0.29239
-0.760565
-0.896276
-0.865677
-0.785418
-0.695134
-0.608277
-0.530557
-0.46374
-0.407625
-0.361312
-0.323798
-0.294206
-0.271756
-0.255844
-0.246045
-0.242172
-0.244275
-0.252645
-0.267871
-0.290597
-0.321451
-0.361251
-0.411168
-0.472401
-0.54543
-0.628832
-0.715766
-0.788343
-0.798002
-0.602122
0.0444607
2.10939
11.9988
0.0931487
0.0870566
0.0839896
0.08905
0.0902524
0.0865403
0.0844664
0.083494
0.0826789
0.08185
0.0810601
0.0803066
0.0794858
0.0785368
0.0774548
0.076249
0.0749279
0.0734963
0.0719555
0.0703041
0.0685403
0.0666635
0.0646743
0.0625747
0.0603684
0.0580603
0.0556562
0.053163
0.0505885
0.0479413
0.0452308
0.0424669
0.0396602
0.0368219
0.0339638
0.0310978
0.0282362
0.0253916
0.0225767
0.019804
0.0170864
0.0144365
0.0118666
0.00938878
0.00701504
0.00475672
0.00262479
0.000629795
-0.00121853
-0.00291117
-0.00443973
-0.0057966
-0.00697505
-0.0079693
-0.00877438
-0.00938618
-0.0098017
-0.0100189
-0.0100367
-0.009855
-0.00947465
-0.00889773
-0.00812706
-0.00716651
-0.00602078
-0.00469559
-0.00319738
-0.00153338
0.000288466
0.00225946
0.00437022
0.0066108
0.00897073
0.0114389
0.014004
0.0166541
0.0193774
0.0221615
0.024994
0.0278624
0.0307536
0.033655
0.0365535
0.0394361
0.0422901
0.0451028
0.0478615
0.0505542
0.0531695
0.0556967
0.0581264
0.0604509
0.0626644
0.0647634
0.0667474
0.068618
0.0703788
0.0720343
0.0735894
0.0750497
0.076418
0.0776862
0.0788312
0.0798721
0.0807756
0.0815241
0.082198
0.0829834
0.0838329
0.0842896
0.0849196
0.0911648
0.0924908
0.0765526
0.082949
0.0926636
-35.5795
49.3236
-12.4153
45.9032
-4.95255
16.7818
-2.25187
1.25782
0.400509
1.13529
-0.0525662
-0.0993583
0.800827
1.67182
2.29277
2.77625
3.15454
3.49719
3.72321
3.73098
3.66797
3.66149
3.6934
3.77224
3.87303
3.9865
4.11075
4.23869
4.37108
4.48006
4.54806
4.59182
4.67544
4.68106
4.68684
4.68041
4.72413
4.78689
4.86233
4.92861
5.00017
5.09509
5.15358
5.20313
5.19503
5.12776
5.16928
5.36031
5.51403
5.57556
5.56091
5.55846
5.78813
5.47263
5.06426
5.91908
6.45904
5.09798
6.82345
3.83917
8.19059
6.90316
7.91029
5.11548
8.16147
2.92839
6.6201
4.42307
5.92626
5.50427
5.76072
5.70631
5.56409
5.53626
5.19519
5.36684
5.42493
6.68193
5.56818
8.22223
4.65637
10.1941
7.14572
9.21221
6.9234
9.58462
2.67051
6.42587
4.23382
5.36456
5.28792
5.32935
5.24273
5.25076
5.29298
5.33967
5.37138
5.39166
5.40814
5.42424
5.43963
5.45237
5.4604
5.46271
5.45962
5.45225
5.44182
5.42924
5.41511
5.39977
5.38344
5.36628
5.34839
5.32986
5.31075
5.2911
5.27096
5.25035
5.22931
5.20785
5.186
5.16377
5.14119
5.11826
5.09501
5.07143
5.04755
5.02338
4.99892
4.97417
4.94916
4.92389
4.89836
4.87258
4.84656
4.8203
4.79381
4.7671
4.74016
4.71302
4.68567
4.65812
4.63037
4.60242
4.57429
4.54597
4.51748
4.4888
4.45995
4.43094
4.40176
4.37242
4.34293
4.31329
4.2835
4.25357
4.2235
4.19329
4.16294
4.13245
4.10184
4.0711
4.04023
4.00923
3.97812
3.94689
3.91555
3.8841
3.85254
3.82088
3.78912
3.75725
3.72529
3.69324
3.66109
3.62886
3.59653
3.56412
3.53163
3.49905
3.46638
3.43364
3.40081
3.3679
3.33491
3.30185
3.26871
3.2355
3.20222
3.16886
3.13544
3.10196
3.06842
3.03481
3.00114
2.96741
2.93363
2.89978
2.86588
2.83191
2.79789
2.76382
2.72969
2.69551
2.66127
2.62698
2.59265
2.55826
2.52382
2.48934
2.45481
2.42023
2.38562
2.35096
2.31627
2.28154
2.24677
2.21197
2.17714
2.14229
2.10741
2.0725
2.03758
2.00264
1.96768
1.93272
1.89774
1.86277
1.82779
1.79281
1.75784
1.72288
1.68794
1.65301
1.6181
1.58322
1.54836
1.51354
1.47876
1.44401
1.40932
1.37467
1.34009
1.30556
1.2711
1.23671
1.20239
1.16816
1.13401
1.09996
1.066
1.03215
0.9984
0.964769
0.931255
0.897864
0.864599
0.831464
0.798461
0.765592
0.732856
0.700254
0.667784
0.635444
0.603226
0.571124
0.539118
0.507176
0.475273
0.443474
0.411722
0.379948
0.348163
0.316425
0.284873
0.253541
0.222127
0.197447
0.15858
0.126265
0.126343
0.165281
0.190045
0.220908
0.252279
0.283819
0.315393
0.347043
0.37871
0.410392
0.442101
0.473881
0.505729
0.537659
0.569685
0.601824
0.634085
0.666475
0.698994
0.731639
0.764407
0.797295
0.8303
0.863421
0.896658
0.930012
0.963483
0.997074
1.03078
1.06461
1.09856
1.13262
1.16679
1.20106
1.23543
1.26989
1.30444
1.33906
1.37375
1.4085
1.44331
1.47817
1.51306
1.54799
1.58295
1.61793
1.65293
1.68794
1.72296
1.75799
1.79302
1.82804
1.86307
1.89808
1.93308
1.96807
2.00304
2.038
2.07293
2.10783
2.14272
2.17757
2.21239
2.24719
2.28195
2.31667
2.35135
2.386
2.4206
2.45517
2.48969
2.52416
2.55859
2.59297
2.62731
2.6616
2.69584
2.73002
2.76416
2.79824
2.83226
2.86623
2.90015
2.934
2.96779
3.00153
3.0352
3.06881
3.10236
3.13584
3.16925
3.2026
3.23587
3.26907
3.3022
3.33526
3.36824
3.40114
3.43396
3.4667
3.49936
3.53194
3.56444
3.59686
3.62918
3.66143
3.69358
3.72563
3.7576
3.78946
3.82123
3.8529
3.88446
3.91591
3.94726
3.97849
4.0096
4.0406
4.07147
4.10221
4.13283
4.16332
4.19367
4.22389
4.25396
4.2839
4.31369
4.34332
4.37281
4.40214
4.43131
4.46031
4.48915
4.51782
4.54631
4.57463
4.60277
4.63072
4.65848
4.68605
4.71342
4.74058
4.76754
4.79428
4.8208
4.84709
4.87315
4.89897
4.92454
4.94986
4.97491
4.99969
5.0242
5.04842
5.07234
5.09595
5.11925
5.14222
5.16485
5.18712
5.20901
5.23052
5.25163
5.27231
5.29254
5.31228
5.33152
5.35018
5.36823
5.38558
5.40212
5.4177
5.4321
5.44495
5.45567
5.46333
5.46672
5.46468
5.45689
5.44434
5.42907
5.41302
5.3966
5.37658
5.34578
5.29974
5.25905
5.25041
5.33912
5.29707
5.36652
4.22477
6.38122
2.67176
9.54998
6.82673
9.2331
7.27192
10.2264
4.57744
8.15641
5.62562
6.72316
5.44207
5.36594
5.18218
5.51567
5.54971
5.69327
5.76733
5.48753
5.91076
4.3755
6.73544
2.9138
8.29432
5.12749
7.97481
6.67837
8.27827
3.86023
6.79267
5.1157
6.49284
5.98582
4.98168
5.38164
5.8566
5.71178
5.62772
5.52291
5.40819
5.26131
5.11764
5.10247
5.16692
5.18463
5.14997
5.10845
5.02287
4.94271
4.90096
4.85443
4.79612
4.72614
4.63356
4.53229
4.45836
4.39859
4.34303
4.26563
4.17993
4.09708
4.01908
3.93957
3.86216
3.7932
3.74043
3.70223
3.67176
3.63115
3.60379
3.54436
3.33084
2.9795
2.52887
1.93513
1.14705
0.430588
0.589163
1.68668
0.833586
2.34044
-1.3199
14.0414
-3.81054
36.4646
-10.5845
38.3933
-31.0864
-8.28438
-4.38366
-2.41958
-1.26456
-0.743495
-0.513257
-0.39123
-0.312429
-0.254528
-0.208619
-0.170729
-0.139084
-0.112896
-0.0917078
-0.0752914
-0.0634369
-0.0559796
-0.0528669
-0.0541337
-0.0599316
-0.0703809
-0.0855924
-0.105718
-0.131082
-0.162608
-0.202274
-0.254571
-0.328973
-0.448593
-0.683826
-1.24039
-2.50624
-4.64635
-8.96724
4.26864
0.261192
7.40255
1.24853
6.30829
2.5935
1.76383
1.33236
1.32179
0.761884
0.768221
1.20836
1.74859
2.22732
2.63648
2.98059
3.26949
3.45883
3.53967
3.57319
3.61529
3.67165
3.75273
3.84804
3.95325
4.06559
4.18132
4.29532
4.38997
4.46249
4.52237
4.59229
4.61815
4.64688
4.67128
4.71941
4.78277
4.8378
4.86238
5.04944
5.08016
5.1231
5.20622
5.17993
5.06796
4.92862
4.86126
4.92499
5.04463
5.18753
5.40309
5.57845
5.50715
5.48248
5.73696
5.91545
5.68162
5.83457
5.33252
6.32577
6.37438
6.80924
5.99529
6.15654
5.25014
5.63443
5.51245
5.90049
5.56606
5.3416
5.30723
5.42685
5.4351
5.4054
5.61243
5.83471
6.10471
5.7023
5.97492
5.5213
6.63042
6.57767
7.02341
6.39971
6.65969
5.24558
5.65388
5.22798
5.38336
5.34639
5.35836
5.30965
5.30987
5.3261
5.35107
5.3717
5.38762
5.40098
5.41315
5.42399
5.43248
5.43749
5.43837
5.4352
5.42855
5.41915
5.40762
5.39443
5.37993
5.36434
5.34782
5.33049
5.31246
5.29379
5.27454
5.25475
5.23447
5.21373
5.19255
5.17095
5.14897
5.12661
5.10389
5.08084
5.05746
5.03376
5.00975
4.98546
4.96088
4.93602
4.91089
4.88551
4.85987
4.83398
4.80786
4.7815
4.75492
4.72811
4.70109
4.67386
4.64642
4.61879
4.59096
4.56294
4.53473
4.50634
4.47777
4.44903
4.42012
4.39104
4.3618
4.33241
4.30286
4.27317
4.24333
4.21335
4.18323
4.15297
4.12258
4.09205
4.06139
4.0306
3.9997
3.96867
3.93752
3.90626
3.87489
3.8434
3.81182
3.78013
3.74834
3.71645
3.68447
3.6524
3.62023
3.58798
3.55564
3.52321
3.4907
3.4581
3.42542
3.39265
3.35981
3.32688
3.29388
3.26081
3.22765
3.19443
3.16114
3.12778
3.09436
3.06087
3.02732
2.99371
2.96004
2.92631
2.89252
2.85867
2.82477
2.79081
2.75679
2.72272
2.68859
2.65441
2.62018
2.5859
2.55157
2.51719
2.48277
2.4483
2.41378
2.37923
2.34463
2.31
2.27533
2.24062
2.20589
2.17112
2.13633
2.10151
2.06667
2.03181
1.99693
1.96204
1.92714
1.89223
1.85732
1.82241
1.7875
1.75259
1.7177
1.68281
1.64795
1.6131
1.57828
1.54349
1.50872
1.474
1.43931
1.40467
1.37007
1.33553
1.30105
1.26663
1.23228
1.19801
1.1638
1.12969
1.09565
1.06171
1.02787
0.994131
0.960497
0.926974
0.893566
0.860276
0.827105
0.794057
0.761131
0.728327
0.695644
0.66308
0.630633
0.598299
0.566066
0.533899
0.501732
0.469637
0.43765
0.405651
0.373569
0.341385
0.309179
0.276828
0.242866
0.205087
0.203725
0.14085
0.116077
0.110072
0.125692
0.123818
0.117257
0.116916
0.116639
0.115731
0.114738
0.113901
0.113234
0.112484
0.111555
0.110471
0.109259
0.107938
0.106518
0.105002
0.103389
0.101675
0.0998603
0.0979436
0.0959268
0.0938132
0.0916074
0.0893148
0.0869419
0.0844959
0.0819849
0.0794173
0.0768025
0.0741503
0.071471
0.0687754
0.0660747
0.06338
0.060703
0.0580554
0.0554488
0.052895
0.0504057
0.0479922
0.045666
0.0434378
0.0413183
0.0393176
0.0374455
0.035711
0.0341225
0.0326876
0.0314135
0.0303064
0.0293716
0.0286138
0.0280367
0.0276432
0.0274351
0.0274134
0.0275783
0.0279289
0.0284634
0.0291791
0.0300724
0.0311392
0.0323739
0.0337709
0.0353234
0.0370242
0.0388655
0.0408386
0.0429344
0.0451436
0.047456
0.0498614
0.0523492
0.0549083
0.0575279
0.0601965
0.0629026
0.0656346
0.0683804
0.0711279
0.0738649
0.076579
0.0792579
0.0818894
0.0844612
0.0869616
0.0893796
0.0917055
0.0939311
0.096051
0.0980627
0.0999671
0.101768
0.103474
0.10509
0.106627
0.108091
0.109475
0.110747
0.111923
0.112972
0.113829
0.114506
0.115137
0.116012
0.116929
0.115996
0.107315
0.0971353
0.146403
0.0782574
0.108701
0.17079
0.172771
0.209525
0.243562
0.276101
0.308266
0.340394
0.372421
0.404396
0.436316
0.468295
0.500325
0.532419
0.564593
0.596865
0.629247
0.661743
0.694356
0.727082
0.759921
0.792868
0.825922
0.859082
0.89235
0.925726
0.959212
0.992809
1.02652
1.06034
1.09427
1.1283
1.16244
1.19668
1.23101
1.26542
1.29992
1.33449
1.36913
1.40382
1.43857
1.47337
1.5082
1.54307
1.57796
1.61288
1.64781
1.68276
1.71772
1.75268
1.78764
1.82261
1.85756
1.89251
1.92745
1.96238
1.99729
2.03218
2.06705
2.10189
2.13671
2.17151
2.20627
2.241
2.2757
2.31037
2.34499
2.37958
2.41413
2.44863
2.4831
2.51752
2.55189
2.58622
2.6205
2.65473
2.68891
2.72304
2.75712
2.79114
2.82511
2.85903
2.89288
2.92668
2.96042
2.99409
3.02771
3.06126
3.09475
3.12817
3.16152
3.19481
3.22802
3.26117
3.29423
3.32723
3.36014
3.39298
3.42573
3.45841
3.491
3.52352
3.55595
3.58829
3.62055
3.65272
3.6848
3.71679
3.74868
3.78047
3.81216
3.84375
3.87524
3.90661
3.93788
3.96903
4.00006
4.03097
4.06176
4.09242
4.12295
4.15335
4.18361
4.21374
4.24372
4.27356
4.30326
4.3328
4.36218
4.39141
4.42048
4.44938
4.47811
4.50667
4.53506
4.56327
4.59129
4.61913
4.64678
4.67423
4.70148
4.72852
4.75535
4.78196
4.80834
4.8345
4.86042
4.8861
4.91152
4.93669
4.96158
4.98621
5.01054
5.03458
5.05832
5.08174
5.10484
5.12759
5.14999
5.17202
5.19366
5.21489
5.23569
5.25603
5.2759
5.29525
5.31403
5.3322
5.34968
5.36639
5.3822
5.39694
5.41038
5.42219
5.43188
5.43881
5.44226
5.44164
5.43685
5.42853
5.4178
5.4057
5.39243
5.37667
5.3565
5.33177
5.3161
5.31528
5.36386
5.34984
5.38115
5.21845
5.63433
5.24316
6.65987
6.38858
7.03052
6.59983
6.63696
5.52638
5.94562
5.64821
6.08731
5.84274
5.62166
5.41178
5.45052
5.45294
5.33443
5.3565
5.54299
5.88207
5.49233
5.65517
5.21422
6.163
5.94737
6.75243
6.29863
6.30182
5.29267
5.81321
5.67644
5.92773
5.75122
5.46353
5.50495
5.65399
5.51134
5.2056
4.99451
4.8879
4.84988
4.93613
5.07159
5.16534
5.198
5.1348
5.08809
5.0672
4.88082
4.86753
4.81526
4.74804
4.67428
4.59467
4.51107
4.43512
4.36571
4.29936
4.22381
4.14347
4.06288
3.98429
3.9058
3.8292
3.7574
3.69351
3.63527
3.57813
3.50975
3.43006
3.31676
3.11683
2.81797
2.4426
2.00419
1.52766
1.17578
1.20595
1.72077
1.71359
2.18978
2.63358
5.50845
1.37941
6.1775
0.0454603
3.09887
0.551442
0.147874
-0.0311306
-0.0731804
-0.0627113
-0.0402788
-0.0172138
0.00444975
0.0246694
0.0435669
0.060979
0.0766151
0.0900423
0.100948
0.10917
0.114614
0.117196
0.116869
0.113761
0.108083
0.100129
0.0902655
0.0789673
0.0667218
0.0538524
0.0409349
0.0296561
0.0251516
0.044205
0.13881
0.416498
1.00347
0.170441
0.739348
3.45694
2.3656
3.77837
2.57165
2.10299
1.67316
1.57068
1.23036
1.24676
1.51855
1.87746
2.23464
2.56619
2.85886
3.10846
3.2891
3.40187
3.48073
3.55545
3.63181
3.71958
3.81472
3.91553
4.02028
4.12612
4.22883
4.31796
4.3926
4.45767
4.52493
4.56478
4.60593
4.64354
4.6927
4.74628
4.79574
4.83001
4.8687
4.95922
5.04675
5.09406
5.08954
5.04589
4.99333
4.97605
5.0184
5.10362
5.21479
5.34733
5.45478
5.47287
5.52972
5.66609
5.73628
5.67186
5.79184
5.64885
6.10654
6.05207
6.28631
5.91489
5.93218
5.43542
5.63054
5.55727
5.71874
5.56021
5.4848
5.42828
5.46471
5.49361
5.52355
5.65397
5.76638
5.89092
5.78904
5.95649
5.85
6.32568
6.24597
6.48854
6.21269
6.23178
5.62258
5.68813
5.43189
5.46755
5.40291
5.39411
5.35764
5.35149
5.35569
5.36717
5.37851
5.38848
5.39736
5.40537
5.41219
5.41711
5.41939
5.41861
5.41473
5.40805
5.399
5.388
5.3754
5.36147
5.34641
5.33039
5.31352
5.2959
5.27761
5.2587
5.23923
5.21924
5.19877
5.17784
5.15648
5.13471
5.11256
5.09004
5.06717
5.04397
5.02044
4.9966
4.97246
4.94803
4.92331
4.89833
4.87308
4.84758
4.82182
4.79582
4.76959
4.74313
4.71644
4.68954
4.66242
4.63509
4.60756
4.57984
4.55192
4.52382
4.49553
4.46707
4.43842
4.40961
4.38063
4.35149
4.32219
4.29273
4.26313
4.23338
4.20349
4.17345
4.14327
4.11296
4.08252
4.05194
4.02123
3.99041
3.95946
3.92839
3.8972
3.8659
3.8345
3.80299
3.77137
3.73965
3.70783
3.67592
3.64392
3.61182
3.57963
3.54736
3.51499
3.48254
3.45001
3.41739
3.38469
3.3519
3.31904
3.2861
3.25308
3.21999
3.18682
3.15359
3.12029
3.08692
3.05349
3.02
2.98644
2.95283
2.91915
2.88542
2.85163
2.81778
2.78387
2.74991
2.71589
2.68182
2.6477
2.61352
2.5793
2.54502
2.5107
2.47633
2.44191
2.40746
2.37296
2.33842
2.30385
2.26923
2.23459
2.19991
2.1652
2.13047
2.09571
2.06093
2.02613
1.99132
1.95649
1.92165
1.8868
1.85195
1.8171
1.78225
1.7474
1.71256
1.67774
1.64293
1.60815
1.57338
1.53864
1.50393
1.46926
1.43462
1.40003
1.36548
1.33098
1.29654
1.26216
1.22784
1.1936
1.15942
1.12533
1.09131
1.05738
1.02355
0.989807
0.956167
0.922632
0.889203
0.855885
0.822678
0.789584
0.756602
0.723731
0.69097
0.658318
0.625773
0.593335
0.560979
0.528624
0.496265
0.464073
0.431979
0.39985
0.367514
0.334916
0.302111
0.268641
0.231878
0.179891
0.20401
0.110842
0.146011
0.197981
0.234824
0.268639
0.301546
0.334145
0.36648
0.398691
0.430699
0.462802
0.494948
0.527162
0.559458
0.59185
0.624346
0.656948
0.689657
0.722468
0.755379
0.788387
0.82149
0.85469
0.887987
0.921383
0.954882
0.988484
1.02219
1.056
1.08992
1.12394
1.15805
1.19226
1.22656
1.26093
1.29539
1.32992
1.3645
1.39915
1.43385
1.46859
1.50337
1.53818
1.57301
1.60787
1.64275
1.67763
1.71253
1.74744
1.78234
1.81724
1.85214
1.88703
1.92191
1.95678
1.99163
2.02646
2.06127
2.09606
2.13082
2.16556
2.20026
2.23494
2.26958
2.30419
2.33876
2.37329
2.40778
2.44223
2.47664
2.511
2.54532
2.5796
2.61382
2.648
2.68213
2.7162
2.75023
2.7842
2.81812
2.85197
2.88578
2.91952
2.9532
2.98682
3.02038
3.05388
3.08731
3.12067
3.15397
3.1872
3.22035
3.25344
3.28645
3.31938
3.35223
3.385
3.4177
3.45031
3.48284
3.51529
3.54766
3.57994
3.61213
3.64423
3.67624
3.70816
3.73998
3.7717
3.80332
3.83484
3.86625
3.89755
3.92874
3.95982
3.99077
4.0216
4.05231
4.08289
4.11334
4.14365
4.17383
4.20387
4.23376
4.26351
4.29312
4.32257
4.35186
4.38099
4.40996
4.43876
4.4674
4.49586
4.52414
4.55225
4.58017
4.6079
4.63544
4.66277
4.68991
4.71683
4.74354
4.77003
4.79629
4.82232
4.84811
4.87365
4.89893
4.92395
4.9487
4.97317
4.99735
5.02123
5.0448
5.06804
5.09095
5.1135
5.13569
5.15749
5.17889
5.19987
5.22039
5.24044
5.25999
5.27898
5.29739
5.31514
5.33217
5.34838
5.36365
5.37782
5.39067
5.40194
5.41127
5.41822
5.42237
5.42339
5.4213
5.41652
5.4098
5.40183
5.39298
5.38306
5.37188
5.36037
5.35624
5.36163
5.39739
5.40422
5.46508
5.42581
5.6782
5.61898
6.23013
6.20862
6.49208
6.25408
6.32802
5.84502
5.93728
5.76534
5.87999
5.7658
5.65785
5.52941
5.50386
5.47871
5.44139
5.49164
5.55274
5.70829
5.54807
5.63939
5.44044
5.93045
5.88349
6.24829
6.00518
6.08014
5.62371
5.77446
5.66606
5.73741
5.67335
5.52991
5.48216
5.49151
5.39522
5.23276
5.09103
5.00119
4.96686
4.99118
5.0429
5.08284
5.08991
5.04983
4.96358
4.87513
4.84068
4.81002
4.75968
4.69785
4.62853
4.55527
4.47871
4.40444
4.33257
4.26221
4.1866
4.10796
4.02845
3.94953
3.87042
3.79209
3.71576
3.64242
3.56957
3.4932
3.40414
3.29992
3.16704
2.97679
2.72371
2.42566
2.10406
1.78732
1.55982
1.55157
1.85209
1.90977
2.27294
2.52814
3.42668
2.13931
2.9267
0.43063
0.178938
0.129737
0.139973
0.148691
0.149767
0.148684
0.147509
0.14669
0.146281
0.145705
0.144813
0.143713
0.142475
0.141139
0.13972
0.138225
0.136648
0.134985
0.133231
0.131386
0.129451
0.127428
0.125321
0.123136
0.120879
0.118556
0.116175
0.113744
0.111272
0.108767
0.106238
0.103697
0.101153
0.0986163
0.0960978
0.0936083
0.0911585
0.0887593
0.0864215
0.0841556
0.0819721
0.0798811
0.0778923
0.0760153
0.0742589
0.0726315
0.0711408
0.069794
0.0685977
0.0675575
0.0666785
0.065965
0.0654204
0.0650473
0.0648475
0.0648219
0.0649706
0.0652928
0.0657868