/*--------------------------------*- C++ -*----------------------------------*\
| =========                 |                                                 |
| \\      /  F ield         | OpenFOAM: The Open Source CFD Toolbox           |
|  \\    /   O peration     | Version:  2.2.1                                 |
|   \\  /    A nd           | Web:      www.OpenFOAM.org                      |
|    \\/     M anipulation  |                                                 |
\*---------------------------------------------------------------------------*/
FoamFile
{
    version     2.0;
    format      ascii;
    class       surfaceScalarField;
    location    "5e-05";
    object      phi;
}
// * * * * * * * * * * * * * * * * * * * * * * * * * * * * * * * * * * * * * //

dimensions      [0 3 -1 0 0 0 0];

internalField   nonuniform List<scalar> 
44563
(
-3.52939e-13
1.32776e-13
-4.21525e-13
6.85868e-14
-9.26335e-15
-4.12262e-13
-2.96556e-14
2.03923e-14
2.24735e-14
-5.21291e-14
-1.11576e-14
3.3631e-14
5.07568e-14
-6.19144e-14
-1.48872e-14
6.56439e-14
-4.50134e-15
-1.03858e-14
-3.36106e-14
2.91093e-14
-3.34437e-14
-1.66908e-16
-6.20249e-14
2.85812e-14
-3.63614e-14
-2.56635e-14
-2.12111e-14
-1.51503e-14
-1.4254e-14
-6.95713e-15
-1.05954e-14
-3.6586e-15
-8.35064e-15
-2.24475e-15
-7.84975e-15
-5.0089e-16
-8.71096e-15
8.61205e-16
-1.19726e-14
3.26165e-15
-1.47796e-14
2.80701e-15
-1.55497e-14
7.70051e-16
-1.49747e-14
-5.74916e-16
-1.44634e-14
-5.11372e-16
-1.32956e-14
-1.16783e-15
-1.24202e-14
-8.75394e-16
-1.16036e-14
-8.1651e-16
-1.08978e-14
-7.05872e-16
-1.04492e-14
-4.48536e-16
-1.04271e-14
-2.21374e-17
-1.1206e-14
7.78891e-16
-1.18553e-14
6.49318e-16
-1.20867e-14
2.31426e-16
-1.15565e-14
-5.30276e-16
-1.34212e-14
1.86475e-15
-1.28649e-14
-5.56268e-16
-1.28701e-14
5.16811e-18
-1.18813e-14
-9.88756e-16
-1.13415e-14
-5.39844e-16
-1.06305e-14
-7.1101e-16
-1.01484e-14
-4.82126e-16
-9.75188e-15
-3.96487e-16
-9.60931e-15
-1.42569e-16
-9.71534e-15
1.06031e-16
-9.81767e-15
1.02322e-16
-9.85947e-15
4.17995e-17
-9.4209e-15
-4.38566e-16
-8.60176e-15
-8.19135e-16
-7.29402e-15
-1.30775e-15
-5.7955e-15
-1.49852e-15
-4.35159e-15
-1.44391e-15
-3.15871e-15
-1.19288e-15
-2.21331e-15
-9.45397e-16
-1.91502e-15
-2.98293e-16
-1.81845e-15
-9.65668e-17
3.2505e-15
-5.06895e-15
7.11491e-16
2.53901e-15
-4.91924e-15
5.63073e-15
-2.81655e-15
-2.10269e-15
4.43855e-15
-7.2551e-15
-8.4699e-15
1.29085e-14
2.26487e-15
-1.07348e-14
-2.89557e-14
3.12206e-14
9.50879e-15
-3.84645e-14
-9.97875e-15
1.94875e-14
1.32224e-14
-2.32011e-14
-5.9831e-15
1.92055e-14
1.31608e-15
-7.29917e-15
-1.45706e-14
1.58866e-14
-4.4374e-15
-1.01332e-14
-1.69614e-14
1.2524e-14
-8.46665e-15
-8.49479e-15
-1.33406e-14
4.87391e-15
-6.83595e-15
-6.50461e-15
-3.96629e-15
-2.86966e-15
-1.38581e-15
-2.58048e-15
2.31495e-15
-3.70077e-15
-1.19396e-15
3.50891e-15
-4.85132e-16
-7.08826e-16
-2.75062e-16
-2.10069e-16
9.58833e-15
-9.86339e-15
-6.94993e-15
1.65383e-14
-4.5306e-15
-2.41933e-15
-2.84478e-14
2.39172e-14
6.81449e-15
-3.52623e-14
-7.68773e-15
1.45022e-14
1.34373e-14
-2.1125e-14
-4.60338e-15
1.80407e-14
6.12623e-15
-1.07296e-14
-1.1556e-14
1.76822e-14
-5.89173e-15
-5.66425e-15
-1.68366e-14
1.09449e-14
-1.36863e-14
-3.15032e-15
-1.58131e-14
2.12677e-15
-1.31358e-14
-2.67733e-15
-1.18731e-14
-1.26264e-15
-1.05424e-14
-1.33072e-15
-9.64248e-15
-8.99932e-16
-8.84381e-15
-7.98668e-16
-8.10567e-15
-7.38139e-16
-7.44751e-15
-6.58163e-16
-6.89785e-15
-5.49657e-16
-6.47254e-15
-4.25314e-16
-6.16729e-15
-3.0525e-16
-5.95706e-15
-2.1023e-16
-5.80891e-15
-1.48146e-16
-5.69532e-15
-1.13597e-16
-5.59973e-15
-9.55886e-17
-5.51407e-15
-8.56619e-17
-5.43495e-15
-7.91175e-17
-5.36076e-15
-7.41852e-17
-5.29051e-15
-7.02528e-17
-5.22349e-15
-6.70218e-17
-5.15918e-15
-6.43154e-17
-5.09716e-15
-6.20146e-17
-5.03713e-15
-6.00327e-17
-4.97882e-15
-5.83052e-17
-4.92204e-15
-5.67824e-17
-4.86661e-15
-5.54263e-17
-4.81241e-15
-5.42065e-17
-4.75931e-15
-5.30993e-17
-4.70722e-15
-5.20861e-17
-4.65607e-15
-5.11523e-17
-4.60578e-15
-5.02864e-17
-4.5563e-15
-4.94789e-17
-4.50758e-15
-4.8721e-17
-4.45958e-15
-4.8006e-17
-4.41225e-15
-4.73279e-17
-4.36557e-15
-4.66821e-17
-4.3195e-15
-4.60652e-17
-4.27403e-15
-4.54742e-17
-4.22912e-15
-4.49059e-17
-4.18477e-15
-4.43572e-17
-4.14094e-15
-4.38261e-17
-4.09763e-15
-4.3311e-17
-4.05482e-15
-4.28102e-17
-4.0125e-15
-4.23226e-17
-3.97065e-15
-4.18473e-17
-3.92927e-15
-4.13836e-17
-3.88834e-15
-4.09302e-17
-3.84785e-15
-4.04864e-17
-3.8078e-15
-4.00515e-17
-3.76817e-15
-3.96249e-17
-3.72897e-15
-3.92065e-17
-3.69017e-15
-3.87958e-17
-3.65178e-15
-3.83922e-17
-3.61378e-15
-3.79955e-17
-3.57618e-15
-3.76055e-17
-3.53896e-15
-3.72218e-17
-3.50211e-15
-3.68442e-17
-3.46564e-15
-3.64734e-17
-3.42953e-15
-3.61083e-17
-3.39378e-15
-3.57488e-17
-3.35839e-15
-3.53951e-17
-3.32334e-15
-3.50469e-17
-3.28864e-15
-3.47044e-17
-3.25427e-15
-3.43678e-17
-3.22023e-15
-3.40366e-17
-3.18652e-15
-3.37109e-17
-3.15313e-15
-3.33905e-17
-3.12005e-15
-3.30753e-17
-3.08729e-15
-3.27649e-17
-3.05483e-15
-3.24592e-17
-3.02267e-15
-3.21582e-17
-2.99081e-15
-3.18622e-17
-2.95924e-15
-3.15704e-17
-2.92795e-15
-3.12832e-17
-2.89695e-15
-3.10005e-17
-2.86623e-15
-3.07221e-17
-2.83578e-15
-3.04479e-17
-2.80561e-15
-3.0178e-17
-2.77569e-15
-2.99121e-17
-2.74604e-15
-2.96499e-17
-2.71665e-15
-2.93915e-17
-2.68752e-15
-2.91367e-17
-2.65863e-15
-2.88856e-17
-2.62999e-15
-2.86382e-17
-2.6016e-15
-2.83942e-17
-2.57344e-15
-2.81543e-17
-2.54553e-15
-2.79178e-17
-2.51784e-15
-2.76846e-17
-2.49039e-15
-2.74547e-17
-2.46316e-15
-2.72279e-17
-2.43615e-15
-2.70041e-17
-2.40937e-15
-2.67833e-17
-2.38281e-15
-2.65654e-17
-2.35645e-15
-2.63503e-17
-2.33032e-15
-2.61378e-17
-2.30439e-15
-2.59279e-17
-2.27867e-15
-2.57203e-17
-2.25315e-15
-2.5515e-17
-2.22784e-15
-2.53119e-17
-2.20273e-15
-2.51109e-17
-2.17782e-15
-2.49123e-17
-2.1531e-15
-2.47152e-17
-2.12858e-15
-2.45196e-17
-2.10426e-15
-2.43252e-17
-2.08013e-15
-2.41318e-17
-2.05619e-15
-2.39392e-17
-2.03244e-15
-2.37471e-17
-2.00888e-15
-2.35555e-17
-1.98552e-15
-2.3364e-17
-1.96234e-15
-2.31726e-17
-1.93936e-15
-2.29809e-17
-1.91658e-15
-2.27889e-17
-1.89398e-15
-2.25962e-17
-1.87158e-15
-2.24025e-17
-1.84937e-15
-2.2208e-17
-1.82736e-15
-2.2012e-17
-1.80554e-15
-2.18143e-17
-1.78393e-15
-2.1615e-17
-1.76251e-15
-2.14141e-17
-1.7413e-15
-2.12116e-17
-1.7203e-15
-2.10071e-17
-1.6995e-15
-2.08005e-17
-1.67891e-15
-2.05914e-17
-1.65853e-15
-2.03798e-17
-1.63836e-15
-2.01657e-17
-1.61841e-15
-1.99492e-17
-1.59868e-15
-1.97305e-17
-1.57917e-15
-1.9509e-17
-1.55989e-15
-1.92852e-17
-1.54083e-15
-1.90586e-17
-1.522e-15
-1.88297e-17
-1.5034e-15
-1.85984e-17
-1.48504e-15
-1.83651e-17
-1.46691e-15
-1.813e-17
-1.44901e-15
-1.78929e-17
-1.43136e-15
-1.76541e-17
-1.41395e-15
-1.74138e-17
-1.39677e-15
-1.71724e-17
-1.37984e-15
-1.69304e-17
-1.36316e-15
-1.66881e-17
-1.34671e-15
-1.64458e-17
-1.33051e-15
-1.62038e-17
-1.31454e-15
-1.59627e-17
-1.29882e-15
-1.57227e-17
-1.28334e-15
-1.54845e-17
-1.26809e-15
-1.5249e-17
-1.25307e-15
-1.50167e-17
-1.23828e-15
-1.47883e-17
-1.22372e-15
-1.45642e-17
-1.20937e-15
-1.43454e-17
-1.19524e-15
-1.41328e-17
-1.18131e-15
-1.39271e-17
-1.16758e-15
-1.37293e-17
-1.15404e-15
-1.35404e-17
-1.14068e-15
-1.33614e-17
-1.12748e-15
-1.31931e-17
-1.11445e-15
-1.30367e-17
-1.10155e-15
-1.28939e-17
-1.08879e-15
-1.27661e-17
-1.07613e-15
-1.26553e-17
-1.06356e-15
-1.25637e-17
-1.05107e-15
-1.24938e-17
-1.03862e-15
-1.24485e-17
-1.02619e-15
-1.24307e-17
-1.01375e-15
-1.24434e-17
-1.00126e-15
-1.24895e-17
-9.88686e-16
-1.25717e-17
-9.75994e-16
-1.26926e-17
-9.63138e-16
-1.28552e-17
-9.50075e-16
-1.30634e-17
-9.36752e-16
-1.33229e-17
-9.23111e-16
-1.36417e-17
-9.09082e-16
-1.40291e-17
-8.94589e-16
-1.44932e-17
-8.79552e-16
-1.50367e-17
-8.63897e-16
-1.56545e-17
-8.47561e-16
-1.63363e-17
-8.30487e-16
-1.70743e-17
-8.12629e-16
-1.78587e-17
-7.93902e-16
-1.87269e-17
-7.74151e-16
-1.97506e-17
-7.52979e-16
-2.11714e-17
-7.29101e-16
-2.3877e-17
-6.98931e-16
-3.01694e-17
-6.59808e-16
-3.91219e-17
-6.12418e-16
-4.73891e-17
-5.6132e-16
-5.10964e-17
-5.1963e-16
-4.16888e-17
-4.83358e-16
-3.62717e-17
-4.44071e-16
-3.92862e-17
-3.90724e-16
-5.33461e-17
-8.44689e-17
3.84545e-16
-8.07544e-17
4.35999e-16
-5.14543e-17
4.78673e-16
-4.26736e-17
5.23132e-16
-4.44597e-17
5.7375e-16
-5.06177e-17
6.19907e-16
-4.61577e-17
6.59745e-16
-3.98373e-17
6.92889e-16
-3.31449e-17
7.21018e-16
-2.81286e-17
7.45674e-16
-2.46562e-17
7.67919e-16
-2.2246e-17
7.88467e-16
-2.05484e-17
8.07682e-16
-1.92142e-17
8.25754e-16
-1.8073e-17
8.42852e-16
-1.70973e-17
8.59107e-16
-1.62549e-17
8.74641e-16
-1.55344e-17
8.89571e-16
-1.49303e-17
9.04008e-16
-1.44367e-17
9.18049e-16
-1.40414e-17
9.31777e-16
-1.37274e-17
9.45253e-16
-1.3476e-17
9.58522e-16
-1.32693e-17
9.71615e-16
-1.30931e-17
9.84553e-16
-1.29383e-17
9.97353e-16
-1.28e-17
1.01003e-15
-1.26778e-17
1.0226e-15
-1.2574e-17
1.0351e-15
-1.24931e-17
1.04754e-15
-1.24395e-17
1.05996e-15
-1.24175e-17
1.07239e-15
-1.24299e-17
1.08486e-15
-1.24784e-17
1.09743e-15
-1.25625e-17
1.11011e-15
-1.26806e-17
1.12294e-15
-1.28298e-17
1.13595e-15
-1.30067e-17
1.14915e-15
-1.32067e-17
1.16258e-15
-1.34259e-17
1.17624e-15
-1.366e-17
1.19014e-15
-1.39052e-17
1.2043e-15
-1.4158e-17
1.21872e-15
-1.44156e-17
1.23339e-15
-1.46755e-17
1.24833e-15
-1.4936e-17
1.26353e-15
-1.51957e-17
1.27898e-15
-1.54536e-17
1.29469e-15
-1.5709e-17
1.31065e-15
-1.59618e-17
1.32686e-15
-1.62117e-17
1.34332e-15
-1.64586e-17
1.36003e-15
-1.6703e-17
1.37697e-15
-1.69446e-17
1.39416e-15
-1.71837e-17
1.41158e-15
-1.74202e-17
1.42923e-15
-1.76545e-17
1.44712e-15
-1.78865e-17
1.46523e-15
-1.81162e-17
1.48358e-15
-1.83436e-17
1.50215e-15
-1.85688e-17
1.52094e-15
-1.87917e-17
1.53995e-15
-1.90123e-17
1.55918e-15
-1.92305e-17
1.57863e-15
-1.94464e-17
1.59828e-15
-1.96597e-17
1.61816e-15
-1.98708e-17
1.63823e-15
-2.00793e-17
1.65852e-15
-2.02856e-17
1.67901e-15
-2.04896e-17
1.6997e-15
-2.06913e-17
1.72059e-15
-2.08908e-17
1.74168e-15
-2.10884e-17
1.76297e-15
-2.12844e-17
1.78445e-15
-2.14786e-17
1.80612e-15
-2.16714e-17
1.82798e-15
-2.18629e-17
1.85003e-15
-2.20535e-17
1.87228e-15
-2.22432e-17
1.89471e-15
-2.24322e-17
1.91733e-15
-2.26209e-17
1.94014e-15
-2.28091e-17
1.96313e-15
-2.29973e-17
1.98632e-15
-2.31855e-17
2.00969e-15
-2.3374e-17
2.03326e-15
-2.3563e-17
2.05701e-15
-2.37527e-17
2.08096e-15
-2.39435e-17
2.10509e-15
-2.41354e-17
2.12942e-15
-2.43286e-17
2.15394e-15
-2.45232e-17
2.17866e-15
-2.47195e-17
2.20358e-15
-2.49177e-17
2.2287e-15
-2.51177e-17
2.25402e-15
-2.53202e-17
2.27954e-15
-2.55247e-17
2.30527e-15
-2.57314e-17
2.33122e-15
-2.59404e-17
2.35737e-15
-2.61519e-17
2.38373e-15
-2.6366e-17
2.41032e-15
-2.65827e-17
2.43712e-15
-2.68022e-17
2.46414e-15
-2.70245e-17
2.49139e-15
-2.72499e-17
2.51887e-15
-2.74782e-17
2.54658e-15
-2.77094e-17
2.57452e-15
-2.79439e-17
2.6027e-15
-2.81813e-17
2.63113e-15
-2.84216e-17
2.65979e-15
-2.86655e-17
2.6887e-15
-2.89124e-17
2.71787e-15
-2.91626e-17
2.74728e-15
-2.94161e-17
2.77696e-15
-2.96731e-17
2.80689e-15
-2.99338e-17
2.83709e-15
-3.01983e-17
2.86755e-15
-3.04666e-17
2.89829e-15
-3.07389e-17
2.92931e-15
-3.10155e-17
2.9606e-15
-3.12964e-17
2.99218e-15
-3.15819e-17
3.02406e-15
-3.18721e-17
3.05622e-15
-3.21667e-17
3.08869e-15
-3.24666e-17
3.12146e-15
-3.27712e-17
3.15454e-15
-3.30808e-17
3.18794e-15
-3.33956e-17
3.22165e-15
-3.37159e-17
3.2557e-15
-3.40418e-17
3.29007e-15
-3.43732e-17
3.32478e-15
-3.47101e-17
3.35983e-15
-3.50529e-17
3.39523e-15
-3.54014e-17
3.43099e-15
-3.57555e-17
3.4671e-15
-3.61153e-17
3.50359e-15
-3.64808e-17
3.54044e-15
-3.68521e-17
3.57767e-15
-3.72299e-17
3.61528e-15
-3.76139e-17
3.65329e-15
-3.80044e-17
3.69169e-15
-3.84016e-17
3.73049e-15
-3.88061e-17
3.76971e-15
-3.92181e-17
3.80935e-15
-3.96378e-17
3.84942e-15
-4.00659e-17
3.88992e-15
-4.05028e-17
3.93087e-15
-4.09494e-17
3.97227e-15
-4.1406e-17
4.01415e-15
-4.18735e-17
4.0565e-15
-4.23529e-17
4.09934e-15
-4.28451e-17
4.1427e-15
-4.33513e-17
4.18657e-15
-4.38726e-17
4.23098e-15
-4.44107e-17
4.27595e-15
-4.49676e-17
4.32149e-15
-4.55451e-17
4.36764e-15
-4.61459e-17
4.41441e-15
-4.6773e-17
4.46184e-15
-4.74295e-17
4.50996e-15
-4.81194e-17
4.55881e-15
-4.88473e-17
4.60843e-15
-4.96188e-17
4.65887e-15
-5.04397e-17
4.71018e-15
-5.13179e-17
4.76245e-15
-5.22632e-17
4.81574e-15
-5.32875e-17
4.87014e-15
-5.44055e-17
4.92578e-15
-5.56356e-17
4.98278e-15
-5.70009e-17
5.04131e-15
-5.85312e-17
5.10157e-15
-6.02644e-17
5.16382e-15
-6.22497e-17
5.22837e-15
-6.45521e-17
5.29563e-15
-6.72577e-17
5.36612e-15
-7.04848e-17
5.44053e-15
-7.44088e-17
5.51985e-15
-7.93255e-17
5.60569e-15
-8.58415e-17
5.7014e-15
-9.5706e-17
5.81498e-15
-1.13579e-16
5.96285e-15
-1.47876e-16
6.17242e-15
-2.09564e-16
6.47653e-15
-3.04115e-16
6.90032e-15
-4.23791e-16
7.44839e-15
-5.48072e-16
8.10547e-15
-6.57078e-16
8.84177e-15
-7.36303e-16
9.64618e-15
-8.04403e-16
1.05268e-14
-8.80631e-16
1.18688e-14
-1.34198e-15
1.30732e-14
-1.20445e-15
1.57789e-14
-2.70563e-15
1.36171e-14
2.16175e-15
1.67344e-14
-3.11727e-15
5.89181e-15
1.08426e-14
1.1527e-14
-5.63514e-15
-5.90917e-15
1.74361e-14
4.57764e-15
-1.04868e-14
-1.32992e-14
1.78769e-14
7.61493e-15
-2.09142e-14
-7.05302e-15
1.46679e-14
2.85993e-14
-3.56523e-14
4.75864e-15
2.38407e-14
6.76356e-15
-2.00491e-15
-9.49301e-15
1.62566e-14
5.46762e-16
-1.00398e-14
5.23693e-16
2.30694e-17
1.22197e-15
-6.98274e-16
-2.28556e-15
3.50753e-15
1.46593e-15
-3.75149e-15
4.04849e-15
-2.58257e-15
7.03541e-15
-2.98692e-15
1.37685e-14
-6.73308e-15
8.43227e-15
5.33623e-15
1.67906e-14
-8.35837e-15
4.31532e-15
1.24753e-14
1.42469e-14
-9.93162e-15
-1.78563e-15
1.60326e-14
6.01643e-15
-7.80206e-15
-1.38785e-14
1.9895e-14
1.02627e-14
-2.41412e-14
-9.12604e-15
1.93887e-14
2.94197e-14
-3.85457e-14
-2.06119e-15
3.14809e-14
9.20784e-15
-1.1269e-14
-3.71365e-15
1.29215e-14
3.38617e-15
-7.09981e-15
5.96528e-15
-2.57912e-15
-2.05033e-16
6.17032e-15
-3.20202e-15
2.99699e-15
1.95713e-15
-5.15915e-15
2.71549e-15
-7.58362e-16
3.10301e-15
-3.87515e-16
3.45326e-15
-3.50253e-16
4.18222e-15
-7.2896e-16
5.6021e-15
-1.41988e-15
7.19028e-15
-1.58818e-15
8.65435e-15
-1.46407e-15
9.69197e-15
-1.03763e-15
1.01845e-14
-4.92524e-16
1.01927e-14
-8.20606e-18
9.87959e-15
3.13112e-16
9.77413e-15
1.05466e-16
9.6625e-15
1.11623e-16
9.85517e-15
-1.92665e-16
1.00052e-14
-1.50026e-16
1.01698e-14
-1.64566e-16
1.00802e-14
8.95326e-17
1.026e-14
-1.7982e-16
1.03249e-14
-6.48191e-17
1.0651e-14
-3.261e-16
1.10948e-14
-4.4387e-16
1.16721e-14
-5.77284e-16
1.18322e-14
-1.60119e-16
1.2162e-14
-3.29784e-16
1.26169e-14
-4.54841e-16
1.31755e-14
-5.58657e-16
1.36614e-14
-4.85903e-16
1.41799e-14
-5.18525e-16
1.47289e-14
-5.48995e-16
1.53106e-14
-5.81695e-16
1.57295e-14
-4.18845e-16
1.59642e-14
-2.34752e-16
1.55542e-14
4.10036e-16
1.51494e-14
4.0478e-16
1.45526e-14
5.9685e-16
1.25209e-14
2.03169e-15
9.79103e-15
2.72985e-15
8.45972e-15
1.33131e-15
9.44515e-15
-9.8543e-16
1.22783e-14
-2.83316e-15
1.88765e-14
-6.59823e-15
3.21005e-14
-1.32239e-14
5.53164e-14
-2.32159e-14
2.61641e-14
2.91523e-14
2.87677e-14
-2.60361e-15
2.80519e-15
2.59625e-14
1.20373e-14
-9.23212e-15
-4.50163e-14
5.70536e-14
1.00375e-14
-5.50537e-14
-2.02452e-14
3.02827e-14
2.77262e-14
-4.79714e-14
7.89677e-15
1.98295e-14
3.76373e-13
-3.68476e-13
3.169e-13
5.9473e-14
1.14841e-13
-1.89377e-16
1.50361e-15
-2.71059e-16
2.90042e-15
-2.97998e-16
4.53862e-15
-2.47838e-16
6.39714e-15
-1.40802e-16
8.49752e-15
-3.58509e-17
1.08809e-14
3.92655e-17
1.35053e-14
8.47497e-17
1.63244e-14
1.09379e-16
1.93155e-14
1.21552e-16
2.2467e-14
1.27278e-16
2.57707e-14
1.30355e-16
2.9218e-14
1.32925e-16
3.28006e-14
1.35954e-16
3.65094e-14
1.39715e-16
4.03353e-14
1.44147e-16
4.42681e-14
1.49067e-16
4.82974e-14
1.5428e-16
5.24127e-14
1.59612e-16
5.6603e-14
1.64922e-16
6.08577e-14
1.701e-16
6.51659e-14
1.75055e-16
6.9517e-14
1.79715e-16
7.39004e-14
1.8402e-16
7.83055e-14
1.87919e-16
8.27219e-14
1.91369e-16
8.71392e-14
1.94336e-16
9.15473e-14
1.96788e-16
9.5936e-14
1.987e-16
1.00295e-13
2.00051e-16
1.04616e-13
2.00822e-16
1.08888e-13
2.00998e-16
1.13102e-13
2.00567e-16
1.1725e-13
1.99523e-16
1.21321e-13
1.97856e-16
1.25309e-13
1.95566e-16
1.29204e-13
1.92652e-16
1.32999e-13
1.89116e-16
1.36685e-13
1.84963e-16
1.40256e-13
1.80202e-16
1.43704e-13
1.74844e-16
1.47023e-13
1.68902e-16
1.50206e-13
1.62392e-16
1.53246e-13
1.55332e-16
1.56139e-13
1.47744e-16
1.58878e-13
1.3965e-16
1.61459e-13
1.31078e-16
1.63876e-13
1.22053e-16
1.66125e-13
1.12607e-16
1.68202e-13
1.0277e-16
1.70103e-13
9.25764e-17
1.71825e-13
8.20606e-17
1.73364e-13
7.12589e-17
1.74718e-13
6.02088e-17
1.75884e-13
4.8949e-17
1.76859e-13
3.75185e-17
1.77644e-13
2.59575e-17
1.78235e-13
1.43064e-17
1.78632e-13
2.60583e-18
1.78834e-13
-9.1035e-18
1.7884e-13
-2.07811e-17
1.78652e-13
-3.23865e-17
1.78268e-13
-4.38804e-17
1.7769e-13
-5.52238e-17
1.76918e-13
-6.63787e-17
1.75954e-13
-7.73081e-17
1.748e-13
-8.79761e-17
1.73457e-13
-9.83482e-17
1.71928e-13
-1.08391e-16
1.70215e-13
-1.18073e-16
1.68322e-13
-1.27363e-16
1.66253e-13
-1.36232e-16
1.64009e-13
-1.44651e-16
1.61597e-13
-1.52595e-16
1.5902e-13
-1.60037e-16
1.56282e-13
-1.66953e-16
1.5339e-13
-1.73319e-16
1.50348e-13
-1.79112e-16
1.47162e-13
-1.84311e-16
1.43839e-13
-1.88896e-16
1.40385e-13
-1.92846e-16
1.36806e-13
-1.96147e-16
1.33111e-13
-1.98781e-16
1.29306e-13
-2.00738e-16
1.25399e-13
-2.02009e-16
1.21399e-13
-2.02591e-16
1.17314e-13
-2.02487e-16
1.13152e-13
-2.01706e-16
1.08924e-13
-2.00268e-16
1.04638e-13
-1.98198e-16
1.00304e-13
-1.95533e-16
9.59322e-14
-1.92316e-16
9.15314e-14
-1.88599e-16
8.71123e-14
-1.84436e-16
8.26849e-14
-1.7988e-16
7.82595e-14
-1.74979e-16
7.38462e-14
-1.69775e-16
6.94555e-14
-1.64297e-16
6.50977e-14
-1.58563e-16
6.07835e-14
-1.52588e-16
5.65232e-14
-1.46379e-16
5.23278e-14
-1.39953e-16
4.82079e-14
-1.33399e-16
4.41746e-14
-1.26877e-16
4.02388e-14
-1.20441e-16
3.64112e-14
-1.16128e-16
3.27043e-14
-1.1644e-16
2.91289e-14
-1.30833e-16
2.57019e-14
-1.64494e-16
2.24288e-14
-2.1376e-16
1.9311e-14
-2.49007e-16
1.63325e-14
-2.53243e-16
1.35168e-14
-1.75578e-16
1.08443e-14
1.79271e-17
8.359e-15
1.81178e-16
6.25381e-15
2.25994e-16
4.44615e-15
1.75834e-16
2.85383e-15
1.48456e-15
-7.82214e-14
-4.79181e-14
-4.7333e-14
-1.28054e-13
-5.34727e-14
-1.38776e-13
-5.32059e-14
-1.73119e-13
-4.83195e-14
-2.0498e-13
-4.24394e-14
-2.32991e-13
-3.64295e-14
-2.58081e-13
-3.06192e-14
-2.80414e-13
-2.52135e-14
-3.00233e-13
-2.03506e-14
-3.17782e-13
-1.61077e-14
-3.33263e-13
-1.24817e-14
-3.46863e-13
-9.39226e-15
-3.58734e-13
-6.75214e-15
-3.68933e-13
-4.47188e-15
-3.77492e-13
-2.44435e-15
-3.84448e-13
-5.90074e-16
-3.89786e-13
1.15196e-15
-3.93492e-13
2.82881e-15
-3.95557e-13
4.47702e-15
-3.95971e-13
6.12686e-15
-3.9473e-13
7.80624e-15
-3.91834e-13
9.57222e-15
-3.87308e-13
1.14646e-14
-3.81134e-13
1.38271e-14
-3.73604e-13
1.69622e-14
-3.64657e-13
2.08474e-14
-3.53934e-13
2.52663e-14
-3.41188e-13
3.00891e-14
-3.26423e-13
3.52223e-14
-3.09552e-13
4.06085e-14
-2.90438e-13
4.64549e-14
-2.69121e-13
5.27999e-14
-2.4524e-13
5.84391e-14
-2.17899e-13
5.86925e-14
-1.85559e-13
5.22463e-14
-1.50087e-13
8.6542e-14
-1.39032e-13
-4.84585e-14
1.56456e-15
-1.31459e-16
1.64554e-15
-1.23645e-16
1.75414e-15
-1.53062e-16
1.91047e-15
-2.06949e-16
2.0568e-15
-1.92489e-16
2.17836e-15
-1.61394e-16
2.27712e-15
-1.31913e-16
2.36036e-15
-1.11368e-16
2.43332e-15
-9.76184e-17
2.50005e-15
-8.89674e-17
2.56234e-15
-8.28435e-17
2.62099e-15
-7.78691e-17
2.6763e-15
-7.33775e-17
2.72861e-15
-6.941e-17
2.77833e-15
-6.59777e-17
2.82588e-15
-6.30758e-17
2.87161e-15
-6.06676e-17
2.91588e-15
-5.87033e-17
2.95896e-15
-5.71191e-17
3.00107e-15
-5.58435e-17
3.0424e-15
-5.48059e-17
3.08308e-15
-5.39428e-17
3.12319e-15
-5.32057e-17
3.16281e-15
-5.25621e-17
3.20201e-15
-5.19947e-17
3.24083e-15
-5.15015e-17
3.27935e-15
-5.10892e-17
3.31762e-15
-5.07714e-17
3.35575e-15
-5.05625e-17
3.39381e-15
-5.04761e-17
3.4319e-15
-5.05212e-17
3.47012e-15
-5.07012e-17
3.50858e-15
-5.10149e-17
3.54735e-15
-5.14557e-17
3.58654e-15
-5.20136e-17
3.62621e-15
-5.26747e-17
3.66642e-15
-5.34243e-17
3.70724e-15
-5.42471e-17
3.74871e-15
-5.51278e-17
3.79086e-15
-5.60527e-17
3.83371e-15
-5.70093e-17
3.87728e-15
-5.79867e-17
3.92159e-15
-5.89764e-17
3.96662e-15
-5.99713e-17
4.01239e-15
-6.09661e-17
4.0589e-15
-6.19571e-17
4.10613e-15
-6.29416e-17
4.15409e-15
-6.39182e-17
4.20276e-15
-6.48857e-17
4.25215e-15
-6.58445e-17
4.30224e-15
-6.6794e-17
4.35303e-15
-6.77346e-17
4.40451e-15
-6.86665e-17
4.45668e-15
-6.95899e-17
4.50954e-15
-7.05052e-17
4.56306e-15
-7.14124e-17
4.61726e-15
-7.23115e-17
4.67211e-15
-7.32025e-17
4.72763e-15
-7.40852e-17
4.7838e-15
-7.49597e-17
4.84061e-15
-7.58256e-17
4.89806e-15
-7.66827e-17
4.95615e-15
-7.75306e-17
5.01486e-15
-7.83702e-17
5.07419e-15
-7.92004e-17
5.13413e-15
-8.00217e-17
5.19468e-15
-8.08344e-17
5.25583e-15
-8.16384e-17
5.31757e-15
-8.24344e-17
5.3799e-15
-8.32226e-17
5.44282e-15
-8.40034e-17
5.50631e-15
-8.47777e-17
5.57038e-15
-8.55459e-17
5.63502e-15
-8.63087e-17
5.70022e-15
-8.70668e-17
5.76599e-15
-8.7821e-17
5.83232e-15
-8.85715e-17
5.8992e-15
-8.93201e-17
5.96665e-15
-9.00665e-17
6.03465e-15
-9.08119e-17
6.10321e-15
-9.1557e-17
6.17233e-15
-9.23027e-17
6.24201e-15
-9.30497e-17
6.31224e-15
-9.37988e-17
6.38304e-15
-9.45508e-17
6.45441e-15
-9.53065e-17
6.52634e-15
-9.60666e-17
6.59884e-15
-9.68317e-17
6.67192e-15
-9.76024e-17
6.74558e-15
-9.83795e-17
6.81983e-15
-9.91635e-17
6.89466e-15
-9.99547e-17
6.9701e-15
-1.00754e-16
7.04613e-15
-1.01562e-16
7.12278e-15
-1.02379e-16
7.20005e-15
-1.03205e-16
7.27794e-15
-1.04041e-16
7.35646e-15
-1.04888e-16
7.43562e-15
-1.05744e-16
7.51543e-15
-1.06612e-16
7.5959e-15
-1.07491e-16
7.67703e-15
-1.08381e-16
7.75883e-15
-1.09282e-16
7.84131e-15
-1.10195e-16
7.92449e-15
-1.1112e-16
8.00836e-15
-1.12056e-16
8.09295e-15
-1.13006e-16
8.17825e-15
-1.13967e-16
8.26428e-15
-1.1494e-16
8.35104e-15
-1.15927e-16
8.43855e-15
-1.16927e-16
8.52682e-15
-1.17941e-16
8.61585e-15
-1.18968e-16
8.70567e-15
-1.2001e-16
8.79627e-15
-1.21068e-16
8.88767e-15
-1.22141e-16
8.97988e-15
-1.2323e-16
9.07292e-15
-1.24336e-16
9.1668e-15
-1.2546e-16
9.26153e-15
-1.26602e-16
9.35713e-15
-1.27763e-16
9.4536e-15
-1.28943e-16
9.55097e-15
-1.30142e-16
9.64925e-15
-1.31361e-16
9.74846e-15
-1.326e-16
9.8486e-15
-1.3386e-16
9.9497e-15
-1.35142e-16
1.00518e-14
-1.36445e-16
1.01548e-14
-1.3777e-16
1.02589e-14
-1.39117e-16
1.0364e-14
-1.40486e-16
1.04701e-14
-1.41877e-16
1.05773e-14
-1.43291e-16
1.06855e-14
-1.44728e-16
1.07949e-14
-1.46189e-16
1.09053e-14
-1.47673e-16
1.10169e-14
-1.49183e-16
1.11296e-14
-1.50718e-16
1.12435e-14
-1.52279e-16
1.13585e-14
-1.53869e-16
1.14748e-14
-1.55487e-16
1.15923e-14
-1.57137e-16
1.17111e-14
-1.58819e-16
1.18311e-14
-1.60536e-16
1.19524e-14
-1.6229e-16
1.20751e-14
-1.64084e-16
1.21991e-14
-1.65921e-16
1.23246e-14
-1.67805e-16
1.24515e-14
-1.69738e-16
1.25799e-14
-1.71727e-16
1.27098e-14
-1.73777e-16
1.28413e-14
-1.75892e-16
1.29744e-14
-1.78082e-16
1.31092e-14
-1.80353e-16
1.32457e-14
-1.82716e-16
1.33842e-14
-1.85182e-16
1.35245e-14
-1.87763e-16
1.36668e-14
-1.90475e-16
1.38113e-14
-1.93336e-16
1.39581e-14
-1.96366e-16
1.41072e-14
-1.99591e-16
1.4259e-14
-2.0304e-16
1.44134e-14
-2.06752e-16
1.45709e-14
-2.10772e-16
1.47317e-14
-2.15157e-16
1.4896e-14
-2.19976e-16
1.50643e-14
-2.2532e-16
1.52371e-14
-2.31302e-16
1.54149e-14
-2.38069e-16
1.55985e-14
-2.45814e-16
1.57887e-14
-2.54796e-16
1.59868e-14
-2.65371e-16
1.61944e-14
-2.78048e-16
1.64136e-14
-2.93586e-16
1.66475e-14
-3.13206e-16
1.69007e-14
-3.39058e-16
1.71801e-14
-3.75163e-16
1.74951e-14
-4.28521e-16
1.78562e-14
-5.08981e-16
1.82727e-14
-6.2613e-16
1.87512e-14
-7.82606e-16
1.92962e-14
-9.68758e-16
1.9913e-14
-1.16488e-15
2.06073e-14
-1.3514e-15
2.13924e-14
-1.52141e-15
2.22834e-14
-1.69536e-15
2.33413e-14
-1.93853e-15
2.42698e-14
-2.27047e-15
2.55855e-14
-2.52018e-15
2.52275e-14
-2.34761e-15
2.83128e-14
-9.23498e-16
2.57439e-14
-5.48385e-16
3.34572e-14
3.12929e-15
3.35498e-14
-5.72776e-15
3.82454e-14
1.27405e-14
4.42288e-14
-1.64702e-14
4.28686e-14
1.92371e-14
2.78614e-14
-5.907e-15
3.44675e-14
8.06186e-15
6.22861e-15
-7.41343e-15
1.31095e-14
1.69598e-14
2.23613e-14
-1.12568e-14
2.66406e-14
1.19773e-14
2.23626e-14
-5.7618e-15
1.67184e-14
5.66725e-15
1.8604e-14
-2.58383e-15
2.30928e-14
-9.81306e-16
2.37345e-14
-4.39316e-15
2.44136e-14
-3.26166e-15
2.54463e-14
-4.01958e-15
2.26403e-14
-3.92709e-15
3.02212e-14
-2.24467e-15
2.35106e-14
-1.64779e-15
3.01273e-14
5.85859e-15
2.81927e-14
-7.99703e-15
3.14645e-14
1.27608e-14
4.02746e-14
-1.66122e-14
4.3223e-14
1.69465e-14
2.96767e-14
-1.05948e-14
3.95854e-14
9.47998e-15
6.10587e-15
-5.06617e-15
2.44109e-14
1.31759e-14
2.47948e-14
-1.1653e-14
2.79165e-14
9.79978e-15
2.63298e-14
-5.51314e-15
1.92077e-14
4.54297e-15
2.22941e-14
3.08393e-15
2.7752e-14
-2.46091e-15
2.42206e-14
-1.62773e-15
2.26096e-14
8.52687e-16
2.21748e-14
4.72626e-17
2.3484e-14
-1.65946e-15
2.56101e-14
-2.85506e-15
2.76512e-14
-3.46095e-15
2.94766e-14
-3.41362e-15
3.04309e-14
-2.41838e-15
3.07066e-14
-1.3133e-15
3.07049e-14
-4.90847e-16
3.06735e-14
2.32271e-17
3.09486e-14
3.79451e-17
3.12563e-14
-2.02162e-16
3.17383e-14
-3.70366e-16
3.21369e-14
-5.91275e-16
3.25711e-14
-5.84291e-16
3.29243e-14
-5.17696e-16
3.34803e-14
-4.66544e-16
3.38253e-14
-5.24739e-16
3.44497e-14
-6.89207e-16
3.507e-14
-9.46485e-16
3.56811e-14
-1.05497e-15
3.61511e-14
-1.0472e-15
3.6913e-14
-9.22112e-16
3.75688e-14
-9.8556e-16
3.82296e-14
-1.11566e-15
3.88726e-14
-1.20164e-15
3.96031e-14
-1.21641e-15
4.03207e-14
-1.23609e-15
4.10103e-14
-1.23859e-15
4.15969e-14
-1.16827e-15
4.21249e-14
-9.469e-16
4.24606e-14
-5.70409e-16
4.2943e-14
-7.23788e-17
4.30479e-14
2.99833e-16
4.27624e-14
8.82422e-16
4.32317e-14
1.56239e-15
4.47749e-14
1.18668e-15
4.66401e-14
-5.33985e-16
4.89451e-14
-3.2904e-15
5.32033e-14
-7.09135e-15
5.90146e-14
-1.24095e-14
6.35887e-14
-1.7798e-14
5.4222e-14
-1.38492e-14
7.94507e-14
3.92363e-15
7.84667e-14
-1.61957e-15
8.66749e-14
1.77542e-14
9.69554e-14
-1.95126e-14
6.5844e-14
8.8165e-14
6.54325e-14
-5.46423e-14
2.32173e-14
7.24979e-14
1.30336e-13
-1.5509e-13
6.26704e-14
8.74947e-14
2.75168e-14
-3.33323e-13
3.90717e-14
-3.13177e-14
5.14461e-14
-6.13997e-14
-3.8218e-13
-1.48292e-13
1.07285e-13
-2.31149e-14
-1.77307e-13
-7.6396e-14
8.69122e-14
-7.67785e-14
-6.15319e-14
-1.19172e-13
1.08038e-13
-1.06814e-13
-2.27441e-14
-9.23937e-14
1.46889e-14
-9.04003e-14
-2.16038e-15
-6.26671e-14
8.47957e-16
-7.0331e-14
-1.79996e-14
-6.43531e-14
-2.11282e-14
-5.68178e-14
-1.44924e-14
-5.14728e-14
-9.00361e-15
-4.82695e-14
-5.44803e-15
-4.61193e-14
-2.65106e-15
-4.48088e-14
-4.49294e-16
-4.29907e-14
1.44357e-15
-4.21498e-14
1.96605e-15
-4.21298e-14
7.50114e-16
-4.20766e-14
-6.28126e-16
-4.12707e-14
-1.31733e-15
-4.06868e-14
-1.7517e-15
-3.97991e-14
-1.76314e-15
-3.9007e-14
-1.6086e-15
-3.83592e-14
-1.35362e-15
-3.78508e-14
-9.56914e-16
-3.74224e-14
-4.50568e-16
-3.67337e-14
9.01888e-17
-3.63705e-14
2.86103e-16
-3.62609e-14
1.2179e-16
-3.67702e-14
-2.08963e-17
-3.52874e-14
3.81869e-16
-3.55826e-14
-2.61058e-16
-3.48632e-14
-7.14244e-16
-3.46094e-14
-1.24249e-15
-3.3828e-14
-1.32124e-15
-3.32335e-14
-1.30555e-15
-3.25687e-14
-1.14689e-15
-3.20357e-14
-9.29553e-16
-3.14987e-14
-6.79492e-16
-3.09775e-14
-4.15158e-16
-3.07092e-14
-1.66012e-16
-3.06312e-14
-3.62051e-17
-3.0701e-14
-3.68771e-16
-3.03045e-14
-1.21563e-15
-2.91995e-14
-2.41275e-15
-2.73671e-14
-3.33093e-15
-2.55181e-14
-3.29285e-15
-2.40263e-14
-2.6847e-15
-2.28672e-14
-2.10448e-15
-2.20829e-14
-1.08263e-15
-2.27366e-14
5.57164e-16
-2.66428e-14
-1.16283e-15
-2.18871e-14
-2.21665e-15
-1.87989e-14
2.54255e-15
-2.5393e-14
4.49134e-15
-2.70041e-14
-5.64399e-15
-2.41475e-14
1.00519e-14
-2.34313e-14
-1.1451e-14
-5.01518e-15
1.28045e-14
-3.98613e-14
-3.61835e-15
-2.98843e-14
9.5105e-15
-4.30322e-14
-1.00532e-14
-4.04919e-14
1.66652e-14
-3.13537e-14
-1.64374e-14
-2.75104e-14
1.20433e-14
-2.99725e-14
-7.67101e-15
-2.3211e-14
5.7625e-15
-3.02113e-14
-1.49447e-15
-2.28897e-14
-2.44771e-15
-2.53231e-14
-4.07116e-15
-2.40868e-14
-4.10599e-15
-2.33801e-14
-3.28719e-15
-2.27018e-14
-4.37906e-15
-1.81822e-14
-1.01068e-15
-1.62181e-14
-2.67295e-15
-2.19151e-14
5.48693e-15
-2.61528e-14
-5.62572e-15
-2.20613e-14
1.24468e-14
-1.34598e-14
-1.10208e-14
-6.46784e-15
1.69252e-14
-3.38631e-14
-7.867e-15
-2.73011e-14
7.94024e-15
-4.28828e-14
-5.54338e-15
-4.38181e-14
1.8976e-14
-3.81423e-14
-1.64054e-14
-3.35423e-14
1.30822e-14
-3.35403e-14
-5.66625e-15
-2.57691e-14
3.17372e-15
-2.83506e-14
-5.68814e-16
-2.52668e-14
-9.57099e-16
-2.55782e-14
-2.36585e-15
-2.42881e-14
-2.55274e-15
-2.33308e-14
-2.28804e-15
-2.22789e-14
-1.95188e-15
-2.13771e-14
-1.70038e-15
-2.05911e-14
-1.52419e-15
-1.98953e-14
-1.35399e-15
-1.92777e-14
-1.16724e-15
-1.87322e-14
-9.70759e-16
-1.82535e-14
-7.84028e-16
-1.78368e-14
-6.2689e-16
-1.74758e-14
-5.09148e-16
-1.71612e-14
-4.28244e-16
-1.68822e-14
-3.74592e-16
-1.66295e-14
-3.38308e-16
-1.63963e-14
-3.12351e-16
-1.61778e-14
-2.92667e-16
-1.5971e-14
-2.77094e-16
-1.57736e-14
-2.64401e-16
-1.55841e-14
-2.53824e-16
-1.54012e-14
-2.44851e-16
-1.52241e-14
-2.37124e-16
-1.50521e-14
-2.30384e-16
-1.48844e-14
-2.24435e-16
-1.47207e-14
-2.19129e-16
-1.45606e-14
-2.14351e-16
-1.44037e-14
-2.10011e-16
-1.42497e-14
-2.06038e-16
-1.40985e-14
-2.02375e-16
-1.39498e-14
-1.98976e-16
-1.38035e-14
-1.95802e-16
-1.36594e-14
-1.92823e-16
-1.35174e-14
-1.90012e-16
-1.33773e-14
-1.87346e-16
-1.32392e-14
-1.84809e-16
-1.31029e-14
-1.82384e-16
-1.29683e-14
-1.80058e-16
-1.28354e-14
-1.77821e-16
-1.27041e-14
-1.75662e-16
-1.25743e-14
-1.73573e-16
-1.24461e-14
-1.71547e-16
-1.23193e-14
-1.69579e-16
-1.2194e-14
-1.67664e-16
-1.207e-14
-1.65797e-16
-1.19475e-14
-1.63975e-16
-1.18262e-14
-1.62193e-16
-1.17062e-14
-1.6045e-16
-1.15875e-14
-1.58742e-16
-1.14701e-14
-1.57067e-16
-1.13539e-14
-1.55424e-16
-1.12389e-14
-1.5381e-16
-1.1125e-14
-1.52225e-16
-1.10124e-14
-1.50668e-16
-1.09008e-14
-1.49137e-16
-1.07904e-14
-1.47631e-16
-1.06811e-14
-1.4615e-16
-1.05729e-14
-1.44693e-16
-1.04657e-14
-1.43259e-16
-1.03596e-14
-1.41848e-16
-1.02546e-14
-1.40459e-16
-1.01505e-14
-1.39092e-16
-1.00475e-14
-1.37747e-16
-9.94544e-15
-1.36423e-16
-9.84435e-15