/*--------------------------------*- C++ -*----------------------------------*\
| =========                 |                                                 |
| \\      /  F ield         | OpenFOAM: The Open Source CFD Toolbox           |
|  \\    /   O peration     | Version:  2.2.1                                 |
|   \\  /    A nd           | Web:      www.OpenFOAM.org                      |
|    \\/     M anipulation  |                                                 |
\*---------------------------------------------------------------------------*/
FoamFile
{
    version     2.0;
    format      ascii;
    class       volVectorField;
    location    "5e-05";
    object      U;
}
// * * * * * * * * * * * * * * * * * * * * * * * * * * * * * * * * * * * * * //

dimensions      [0 1 -1 0 0 0 0];

internalField   nonuniform List<vector> 
22464
(
(-0.234688 0.810225 1.49947e-42)
(-0.209498 0.984732 -1.79119e-42)
(0.27294 0.434601 0)
(-0.034835 0.0532058 -8.71632e-43)
(0.0396782 0.00528684 -5.80343e-43)
(-0.0424649 -0.0313455 1.17651e-42)
(0.0700546 -0.0366664 -1.58073e-42)
(-0.0671434 -0.0543544 1.27202e-42)
(0.0106321 0.0265131 0)
(-0.0410927 0.0453197 2.33895e-43)
(-0.0158183 0.0872107 1.35351e-45)
(-0.0497932 0.119571 -1.06601e-42)
(0.00824347 0.1282 -5.75944e-43)
(0.00528701 0.0792607 -1.38218e-43)
(-0.000114044 0.0460296 0)
(-0.00158831 0.0311315 2.42131e-43)
(-0.00177387 0.0238678 2.75622e-43)
(-0.00291928 0.0204118 -2.91198e-43)
(-0.00435951 0.0209819 -2.68167e-43)
(-0.00759347 0.0261734 0)
(-0.0081476 0.0341175 2.81836e-45)
(-0.00650458 0.0392808 -7.16481e-44)
(-0.00508881 0.0399335 0)
(-0.00495923 0.0383668 -2.22895e-45)
(-0.0039967 0.0361378 0)
(-0.00394075 0.0334379 1.30297e-44)
(-0.00370434 0.031154 6.45053e-44)
(-0.00353015 0.0291377 -3.47588e-45)
(-0.00357651 0.027583 -8.84408e-52)
(-0.00395296 0.0269681 1.54556e-43)
(-0.00492946 0.0278536 1.9005e-44)
(-0.00502842 0.0296977 -1.11453e-44)
(-0.00465119 0.0308421 3.59416e-45)
(-0.00389613 0.0308853 -2.0473e-44)
(-0.00664391 0.0321143 -7.14967e-44)
(-0.00438098 0.0340637 -1.13178e-43)
(-0.00481309 0.033479 -6.47178e-44)
(-0.00362265 0.0322343 -3.84155e-44)
(-0.00380684 0.0301945 -2.72678e-44)
(-0.00341719 0.0285069 6.75853e-45)
(-0.0034286 0.0269289 1.13537e-46)
(-0.00335983 0.025759 8.86022e-46)
(-0.00352491 0.025047 3.25851e-44)
(-0.00376334 0.0249569 -5.92195e-45)
(-0.00377771 0.0252544 -2.93354e-44)
(-0.00373314 0.0254966 6.81368e-53)
(-0.00319231 0.0251299 9.20769e-45)
(-0.00262795 0.0236229 3.1834e-44)
(-0.00179089 0.020921 5.1645e-44)
(-0.00109161 0.0172194 1.96416e-43)
(-0.000621043 0.0132686 -6.484e-52)
(-0.00037543 0.00975007 -1.60203e-43)
(-0.000154789 0.00701212 1.80918e-43)
(-0.000514355 0.00539349 1.813e-43)
(-0.000486144 0.00426362 -1.60069e-43)
(0.00555378 -0.000973588 1.16296e-51)
(-0.00193711 -0.00480929 8.91262e-43)
(-0.00680554 0.00373177 1.19851e-44)
(0.000861679 0.00927112 -8.4828e-45)
(0.00892387 6.00949e-05 1.00921e-42)
(-0.0152689 0.00215304 -1.00137e-51)
(0.0102655 0.011128 -4.33527e-43)
(-0.0365959 0.027682 -1.62292e-42)
(0.0363181 0.0286937 -3.12633e-43)
(-0.0185407 -0.00010653 5.41286e-43)
(0.0251844 -0.0018134 6.37961e-43)
(-0.0204485 -0.0111327 1.27543e-42)
(0.00765236 0.00689106 4.1202e-44)
(-0.0211799 0.0134954 -4.27112e-43)
(0.00748211 0.0263593 6.49976e-43)
(-0.0176405 0.0258673 -1.38084e-43)
(0.00383953 0.0341624 -5.29932e-43)
(-0.00909688 0.0285748 -1.87356e-43)
(0.00289916 0.0264698 -2.19305e-43)
(0.00103306 0.014937 1.03533e-43)
(0.00158866 0.00679406 2.0019e-43)
(0.00387231 -0.000584252 3.97658e-43)
(-0.003963 -0.00197983 -1.54228e-43)
(0.00082819 0.00170506 -1.14865e-43)
(5.07837e-05 -0.000176812 1.72578e-43)
(0.013157 -0.00990965 2.51494e-43)
(-0.0185981 -0.00593711 -4.01509e-43)
(0.00126707 0.0163819 1.81703e-43)
(-0.031083 0.0372283 6.19088e-43)
(0.0335881 0.0317899 -8.87332e-43)
(-0.0134471 0.000442563 8.39688e-44)
(0.0239467 -0.00549663 3.17197e-44)
(-0.0182871 -0.0129068 -6.34111e-43)
(0.0124436 -0.000317498 -8.6045e-43)
(-0.0217574 0.00337726 1.04146e-43)
(0.00264725 0.0232957 -3.59959e-44)
(-0.0164745 0.028235 3.66681e-43)
(-0.00279173 0.0395993 1.58278e-43)
(-0.00783614 0.0386407 3.17108e-43)
(-0.00270482 0.0377843 2.35192e-43)
(-0.00338709 0.0327969 0)
(-0.00290256 0.0291312 -1.03407e-43)
(-0.00293472 0.0261958 -1.70787e-43)
(-0.00271891 0.023975 -1.95615e-51)
(-0.00247922 0.0220011 5.03629e-44)
(-0.00228929 0.0201902 0)
(-0.00216742 0.0186099 -1.24949e-45)
(-0.00210777 0.0173295 3.46216e-46)
(-0.00209038 0.0163697 5.52212e-46)
(-0.00208714 0.0156951 0)
(-0.00207856 0.0152301 -1.22191e-45)
(-0.00205946 0.0148939 -2.73572e-45)
(-0.00203371 0.0146263 -1.37103e-45)
(-0.00200585 0.0143941 -2.85436e-46)
(-0.00197858 0.014182 -3.87553e-46)
(-0.00195258 0.0139841 -1.36783e-45)
(-0.00192778 0.0137973 -5.75851e-46)
(-0.00190399 0.0136197 -6.5449e-46)
(-0.00188107 0.0134498 -7.24638e-46)
(-0.00185889 0.0132862 -1.51933e-45)
(-0.00183735 0.0131282 0)
(-0.00181638 0.012975 0)
(-0.0017959 0.0128259 -9.48396e-46)
(-0.00177588 0.0126806 -1.64879e-45)
(-0.00175627 0.0125386 0)
(-0.00173704 0.0123996 0)
(-0.00171815 0.0122634 -6.76051e-54)
(-0.00169958 0.0121297 -6.04278e-46)
(-0.00168131 0.0119983 -1.78576e-45)
(-0.00166333 0.0118691 -1.81063e-45)
(-0.0016456 0.0117419 0)
(-0.00162813 0.0116166 0)
(-0.0016109 0.0114931 -1.88078e-45)
(-0.0015939 0.0113713 -1.90282e-45)
(-0.00157712 0.0112511 0)
(-0.00156055 0.0111326 0)
(-0.00154418 0.0110155 0)
(-0.001528 0.0108998 0)
(-0.00151202 0.0107856 -2.00472e-45)
(-0.00149622 0.0106727 -2.02369e-45)
(-0.00148061 0.0105612 -1.53513e-45)
(-0.00146517 0.0104509 -2.06033e-45)
(-0.0014499 0.0103418 0)
(-0.0014348 0.010234 0)
(-0.00141986 0.0101274 -2.11194e-45)
(-0.00140509 0.0100219 -2.12829e-45)
(-0.00139047 0.00991759 0)
(-0.00137601 0.00981437 0)
(-0.0013617 0.00971225 2.64013e-45)
(-0.00134754 0.0096112 2.18977e-45)
(-0.00133353 0.00951121 -2.20433e-45)
(-0.00131966 0.00941225 -1.76745e-45)
(-0.00130593 0.00931432 0)
(-0.00129234 0.00921738 -4.42162e-46)
(-0.00127889 0.00912143 0)
(-0.00126557 0.00902645 0)
(-0.00125238 0.00893242 0)
(-0.00123933 0.00883934 -2.29744e-45)
(-0.0012264 0.00874718 -2.30944e-45)
(-0.0012136 0.00865593 2.32108e-45)
(-0.00120093 0.00856557 4.66474e-45)
(-0.00118838 0.00847609 4.68675e-45)
(-0.00117594 0.00838748 2.75925e-45)
(-0.00116363 0.00829971 -2.36478e-45)
(-0.00115143 0.00821279 -2.37527e-45)
(-0.00113935 0.00812669 -1.99173e-45)
(-0.00112737 0.00804139 -2.39578e-45)
(-0.00111551 0.0079569 0)
(-0.00110376 0.00787319 3.83197e-46)
(-0.00109212 0.00779026 -2.42497e-45)
(-0.00108058 0.00770809 -3.76348e-46)
(-0.00106915 0.00762667 3.73e-46)
(-0.00105782 0.00754598 -2.45203e-45)
(-0.0010466 0.00746603 0)
(-0.00103547 0.00738679 -2.46874e-45)
(-0.00102444 0.00730825 -2.47674e-45)
(-0.0010135 0.00723041 -2.12761e-45)
(-0.00100267 0.00715326 -4.98439e-45)
(-0.000991922 0.00707677 -3.50865e-46)
(-0.000981271 0.00700096 3.47894e-46)
(-0.000970711 0.00692579 -5.02813e-45)
(-0.000960241 0.00685128 -2.86303e-45)
(-0.00094986 0.00677739 -2.52773e-45)
(-0.000939567 0.00670414 -5.06874e-45)
(-0.000929359 0.00663151 -2.87448e-45)
(-0.000919236 0.00655948 -2.54742e-45)
(-0.000909196 0.00648805 -2.55386e-45)
(-0.00089924 0.00641722 2.56021e-45)
(-0.000889365 0.00634697 5.1329e-45)
(-0.000879571 0.00627729 5.14516e-45)
(-0.000869855 0.00620818 2.89622e-45)
(-0.000860218 0.00613964 -2.58451e-45)
(-0.000850658 0.00607164 -2.59032e-45)
(-0.000841175 0.0060042 -2.28586e-45)
(-0.000831768 0.00593729 -5.20305e-45)
(-0.000822436 0.00587092 -2.60688e-45)
(-0.000813178 0.00580507 2.61207e-45)
(-0.000803992 0.00573975 3.29084e-53)
(-0.000794879 0.00567495 -2.9817e-46)
(-0.000785839 0.00561067 2.95831e-46)
(-0.00077687 0.00554689 -2.63156e-45)
(-0.000767973 0.00548362 0)
(-0.000759147 0.00542085 -2.64073e-45)
(-0.000750391 0.00535858 -2.64527e-45)
(-0.000741705 0.00529681 -2.3655e-45)
(-0.000733088 0.00523553 -5.30865e-45)
(-0.000724542 0.00517474 -2.79767e-46)
(-0.000716066 0.00511446 2.77494e-46)
(-0.000707662 0.00505467 -5.33511e-45)
(-0.000699328 0.00499537 -2.94471e-45)
(-0.000691066 0.00493658 2.67594e-45)
(-0.000682874 0.00487829 2.68004e-45)
(-0.000674755 0.0048205 -2.66032e-46)
(-0.000666707 0.00476321 -2.68811e-45)
(-0.000658734 0.00470644 -2.61386e-46)
(-0.000650834 0.00465017 2.69581e-45)
(-0.000643009 0.00459443 -2.69946e-45)
(-0.000635258 0.00453921 -9.20481e-53)
(-0.000627583 0.00448452 5.41284e-45)
(-0.000619985 0.00443036 2.49476e-46)
(-0.000612466 0.00437673 -2.71292e-45)
(-0.000605025 0.00432366 -2.47141e-45)
(-0.000597663 0.00427113 -5.43763e-45)
(-0.000590382 0.00421916 -2.39531e-46)
(-0.000583181 0.00416775 2.36988e-46)
(-0.000576063 0.00411692 -2.7264e-45)
(-0.000569028 0.00406666 2.49677e-45)
(-0.000562077 0.00401698 2.2919e-46)
(-0.000555212 0.00396789 -2.73232e-45)
(-0.000548432 0.0039194 0)
(-0.000541738 0.00387151 -2.73507e-45)
(-0.000535131 0.00382423 -2.18487e-46)
(-0.000528612 0.00377755 2.73688e-45)
(-0.000522182 0.0037315 -2.73741e-45)
(-0.000515842 0.00368606 -2.10274e-46)
(-0.00050959 0.00364125 2.07517e-46)
(-0.000503428 0.00359707 -5.4745e-45)
(-0.000497355 0.00355351 -2.93858e-45)
(-0.000491371 0.00351058 -2.73561e-45)
(-0.000485477 0.00346828 -2.73436e-45)
(-0.000479671 0.00342661 0)
(-0.000473955 0.00338555 -2.73091e-45)
(-0.000468325 0.00334512 -1.88373e-46)
(-0.000462781 0.0033053 2.7261e-45)
(-0.000457322 0.00326608 -2.72315e-45)
(-0.000451946 0.00322747 -2.90045e-45)
(-0.000446652 0.00318944 0)
(-0.000441438 0.00315198 -2.71202e-45)
(-0.000436301 0.00311509 -2.70747e-45)
(-0.000431238 0.00307874 -2.53137e-45)
(-0.000426246 0.00304291 -5.39415e-45)
(-0.000421322 0.00300758 -2.69124e-45)
(-0.000416461 0.00297273 -2.68497e-45)
(-0.00041166 0.00293834 -2.67827e-45)
(-0.000406914 0.00290436 -3.23313e-46)
(-0.000402218 0.00287077 -2.6634e-45)
(-0.000397565 0.00283754 -5.31035e-45)
(-0.00039295 0.00280461 -2.64643e-45)
(-0.000388363 0.00277196 -2.63717e-45)
(-0.000383797 0.00273951 -2.6274e-45)
(-0.000379242 0.00270722 2.40626e-62)
(-0.000374687 0.00267501 -2.60644e-45)
(-0.000370119 0.00264281 -2.59529e-45)
(-0.000365526 0.00261054 -1.57439e-46)
(-0.000360893 0.00257811 -2.41323e-45)
(-0.000356205 0.00254542 -2.55965e-45)
(-0.000351448 0.00251237 -2.54721e-45)
(-0.000346602 0.00247884 3.29861e-46)
(-0.000341647 0.00244472 2.52182e-45)
(-0.000336557 0.00240985 2.50903e-45)
(-0.000331305 0.00237408 4.81637e-45)
(-0.000325858 0.00233722 2.30254e-45)
(-0.000320186 0.00229906 -2.47297e-45)
(-0.000314267 0.00225939 -3.89276e-46)
(-0.00030809 0.00221804 2.6559e-45)
(-0.000301642 0.00217486 2.11337e-46)
(-0.000294891 0.00212971 -2.21532e-45)
(-0.000287805 0.00208241 -2.65873e-45)
(-0.000280349 0.00203276 -2.43736e-46)
(-0.000272396 0.00198044 -2.58295e-46)
(-0.00026383 0.00192457 -2.72987e-46)
(-0.00025428 0.00186121 0)
(-0.000242755 0.00178448 2.89922e-46)
(-0.000229615 0.00169226 -2.99078e-46)
(-0.000208366 0.00158168 -3.00883e-46)
(-0.000191675 0.00146915 -1.15263e-45)
(-0.000171885 0.00136956 -1.21811e-45)
(-0.000148086 0.00126283 -4.4918e-46)
(-0.000116005 0.0011321 -7.79671e-46)
(-3.16844e-05 0.000868671 -5.73504e-46)
(3.16097e-05 0.000860575 4.13794e-46)
(0.00011448 0.00111565 -2.12479e-46)
(0.00014602 0.0012465 1.28925e-47)
(0.000170863 0.00136173 2.00969e-46)
(0.000190578 0.00148193 6.92632e-46)
(0.000213474 0.00159573 -2.96234e-47)
(0.000228322 0.00169103 -2.21627e-47)
(0.000241085 0.0017731 -3.01763e-46)
(0.000251909 0.00184417 2.94571e-46)
(0.000261554 0.00190759 2.71943e-46)
(0.000270295 0.00196552 2.57248e-46)
(0.000278402 0.00201936 -1.16984e-48)
(0.000286014 0.00206996 2.31815e-46)
(0.000293211 0.0021177 -2.20907e-46)
(0.00030001 0.00216289 0)
(0.000306462 0.00220585 -2.02002e-46)
(0.000312599 0.00224686 -3.74734e-50)
(0.00031845 0.00228618 -2.28822e-45)
(0.000324053 0.00232412 -1.53529e-50)
(0.000329445 0.00236092 2.67854e-45)
(0.000334669 0.00239682 -2.51438e-45)
(0.000339761 0.00243201 -2.35712e-45)
(0.000344751 0.00246661 2.13153e-52)
(0.000349659 0.00250073 -2.54942e-45)
(0.000354501 0.00253442 -4.95794e-45)
(0.000359287 0.00256774 -3.43066e-52)
(0.00036402 0.00260071 2.89856e-45)
(0.000368706 0.0026334 1.57704e-46)
(0.00037335 0.00266584 1.56796e-46)
(0.000377957 0.00269811 1.56212e-46)
(0.000382535 0.00273029 2.62277e-45)
(0.000387094 0.00276245 2.63346e-45)
(0.000391647 0.00279469 -2.64405e-45)
(0.000396207 0.00282711 -5.30879e-45)
(0.000400788 0.00285979 -2.66438e-45)
(0.000405402 0.00289283 3.20238e-46)
(0.000410064 0.00292629 -2.68283e-45)
(0.000414784 0.00296024 -2.69112e-45)
(0.000419572 0.00299474 -2.69873e-45)
(0.000424438 0.00302983 -5.41127e-45)
(0.000429387 0.00306554 -2.88303e-45)
(0.000434426 0.0031019 -2.7173e-45)
(0.000439557 0.00313893 -2.72209e-45)
(0.000444783 0.00317662 0)
(0.000450106 0.00321499 -2.54752e-45)
(0.000455525 0.00325404 -2.73274e-45)
(0.000461042 0.00329375 2.73519e-45)
(0.000466655 0.00333413 1.90773e-46)
(0.000472364 0.00337517 -2.73874e-45)
(0.000478167 0.00341686 0)
(0.000484063 0.00345919 -2.74074e-45)
(0.000490051 0.00350216 -2.74124e-45)
(0.00049613 0.00354576 -2.53671e-45)
(0.000502299 0.00358998 -5.48273e-45)
(0.000508557 0.00363481 -2.10181e-46)
(0.000514902 0.00368026 2.12872e-46)
(0.000521335 0.0037263 -2.73961e-45)
(0.000527854 0.00377295 2.73856e-45)
(0.000534458 0.00382019 2.20824e-46)
(0.000541146 0.00386801 -2.73583e-45)
(0.000547918 0.00391641 0)
(0.000554772 0.00396539 -2.73232e-45)
(0.000561708 0.00401494 -2.31119e-46)
(0.000568725 0.00406504 2.96173e-45)
(0.000575823 0.00411571 -2.72575e-45)
(0.000582999 0.00416692 -2.38583e-46)
(0.000590255 0.00421868 2.41023e-46)
(0.000597587 0.00427097 -5.43558e-45)
(0.000604996 0.0043238 -2.96068e-45)
(0.000612481 0.00437715 -2.71177e-45)
(0.000620041 0.00443102 -2.50551e-46)
(0.000627675 0.0044854 5.41055e-45)
(0.000635382 0.0045403 1.51931e-53)
(0.000643161 0.0045957 -2.69838e-45)
(0.000651013 0.0046516 2.69482e-45)
(0.000658935 0.00470799 2.62047e-46)
(0.000666928 0.00476489 -2.6875e-45)
(0.000674992 0.00482227 2.66542e-46)
(0.000683125 0.00488014 2.67986e-45)
(0.000691328 0.0049385 2.67593e-45)
(0.000699601 0.00499735 -2.39867e-45)
(0.000707943 0.00505669 -5.33557e-45)
(0.000716355 0.00511652 -2.77687e-46)
(0.000724835 0.00517683 2.79921e-46)
(0.000733386 0.00523764 -5.30972e-45)
(0.000742005 0.00529893 -2.9348e-45)
(0.000750694 0.00536072 -2.64582e-45)
(0.000759452 0.00542301 -2.64119e-45)
(0.00076828 0.00548579 0)
(0.000777179 0.00554907 -2.6317e-45)
(0.00078615 0.00561286 -2.95867e-46)
(0.000795191 0.00567716 2.98204e-46)
(0.000804305 0.00574198 8.23817e-54)
(0.000813492 0.00580731 2.6117e-45)
(0.000822753 0.00587318 -2.6064e-45)
(0.000832088 0.00593957 -5.20195e-45)
(0.000841499 0.00600651 -2.90566e-45)
(0.000850986 0.00607399 -2.58975e-45)
(0.00086055 0.00614202 -2.58397e-45)
(0.000870193 0.00621061 2.26025e-45)
(0.000879914 0.00627976 5.14426e-45)
(0.000889715 0.00634949 5.1322e-45)
(0.000899596 0.0064198 2.56e-45)
(0.00090956 0.00649069 -2.55384e-45)
(0.000919607 0.00656218 -2.54759e-45)
(0.000929738 0.00663427 -2.20732e-45)
(0.000939955 0.00670698 -5.06949e-45)
(0.000950259 0.0067803 -2.52812e-45)
(0.00096065 0.00685425 -2.17896e-45)
(0.00097113 0.00692884 -5.02872e-45)
(0.0009817 0.00700407 -3.48194e-46)
(0.000992361 0.00707995 3.51164e-46)
(0.00100311 0.0071565 -4.9848e-45)
(0.00101396 0.00723371 -2.84194e-45)
(0.0010249 0.00731161 -2.47685e-45)
(0.00103594 0.00739019 -2.46879e-45)
(0.00104708 0.00746948 0)
(0.00105831 0.00754947 -2.45204e-45)
(0.00106965 0.00763019 -3.73119e-46)
(0.00108108 0.00771164 3.76454e-46)
(0.00109262 0.00779384 -2.42513e-45)
(0.00110427 0.0078768 -3.83285e-46)
(0.00111602 0.00796053 0)
(0.00112789 0.00804504 -2.39607e-45)
(0.00113986 0.00813034 -2.77994e-45)
(0.00115195 0.00821646 -2.37568e-45)
(0.00116415 0.0083034 -2.36517e-45)
(0.00117646 0.00839117 1.94923e-45)
(0.0011889 0.0084798 4.6869e-45)
(0.00120145 0.00856929 4.6644e-45)
(0.00121413 0.00865966 2.32067e-45)
(0.00122693 0.00875093 -2.30886e-45)
(0.00123986 0.00884311 -2.29678e-45)
(0.00125292 0.00893621 0)
(0.00126611 0.00903026 0)
(0.00127943 0.00912526 0)
(0.00129288 0.00922123 4.42363e-46)
(0.00130648 0.00931818 0)
(0.00132021 0.00941614 -2.6702e-45)
(0.00133408 0.00951512 -2.20493e-45)
(0.0013481 0.00961514 2.19069e-45)
(0.00136227 0.00971622 1.71066e-45)
(0.00137659 0.00981837 0)
(0.00139105 0.00992162 0)
(0.00140567 0.010026 -2.13009e-45)
(0.00142045 0.0101315 -2.11399e-45)
(0.0014354 0.0102382 0)
(0.0014505 0.0103461 0)
(0.00146578 0.0104552 -2.06327e-45)
(0.00148123 0.0105656 -2.55311e-45)
(0.00149685 0.0106772 -2.0272e-45)
(0.00151266 0.0107902 -2.0084e-45)
(0.00152865 0.0109046 0)
(0.00154484 0.0110204 0)
(0.00156123 0.0111376 0)
(0.00157783 0.0112564 0)
(0.00159464 0.0113768 -1.90643e-45)
(0.00161167 0.0114988 -1.88441e-45)
(0.00162894 0.0116226 0)
(0.00164644 0.0117482 0)
(0.00166421 0.0118757 -1.81458e-45)
(0.00168225 0.0120053 -1.78992e-45)
(0.00170057 0.0121371 6.06288e-46)
(0.00171919 0.0122713 6.77918e-54)
(0.00173815 0.012408 0)
(0.00175745 0.0125475 0)
(0.00177713 0.01269 -1.65548e-45)
(0.00179723 0.0128359 -2.29907e-45)
(0.00181778 0.0129855 0)
(0.00183884 0.0131393 0)
(0.00186046 0.013298 -1.53141e-45)
(0.00188273 0.0134621 -2.25888e-45)
(0.00190574 0.0136327 -2.2553e-45)
(0.00192961 0.0138109 -2.25754e-45)
(0.0019545 0.0139983 -1.38629e-45)
(0.00198059 0.0141967 -2.30508e-45)
(0.00200795 0.0144093 -2.39133e-45)
(0.00203591 0.014642 -1.38966e-45)
(0.0020618 0.0149097 -1.35069e-46)
(0.00208109 0.0152455 -1.24316e-45)
(0.00208989 0.0157092 0)
(0.00209327 0.0163815 -5.62392e-46)
(0.00211054 0.0173377 -3.32038e-46)
(0.00216959 0.018614 1.23641e-45)
(0.00229037 0.0201908 0)
(0.00248005 0.0219995 5.40044e-44)
(0.00271267 0.0239776 1.71825e-51)
(0.00295143 0.0261814 -1.70407e-43)
(0.0028871 0.0291045 -1.20901e-43)
(0.00343436 0.0327047 0)
(0.00265573 0.0376664 2.33632e-43)
(0.00785133 0.0384891 1.5554e-43)
(0.00279525 0.0393774 3.97816e-43)
(0.0163502 0.0281008 -2.31145e-43)
(-0.00260826 0.0232488 -3.69658e-44)
(0.0215364 0.00366126 -8.10883e-43)
(-0.0121702 -7.9468e-05 -1.37435e-43)
(0.0182242 -0.0127651 -6.35169e-43)
(-0.0237504 -0.00547544 -1.13462e-42)
(0.0135528 0.000119674 -7.9547e-43)
(-0.0339974 0.0317235 8.98303e-43)
(0.031052 0.0376009 -6.16721e-43)
(-0.000797318 0.0163758 -1.70786e-43)
(0.01829 -0.00594331 -4.09356e-43)
(-0.0132579 -0.00943556 8.53703e-43)
(0.000278047 0.000202027 1.70961e-43)
(-0.000805284 0.00180175 -1.69951e-43)
(0.00395667 -0.00192573 -3.98806e-43)
(-0.00391842 -0.000450417 2.6449e-43)
(-0.00157748 0.0070177 2.02088e-43)
(-0.00112876 0.0153819 1.00991e-43)
(-0.00304053 0.0272849 -2.51185e-43)
(0.00966733 0.0289677 1.98394e-43)
(-0.00372337 0.0339274 5.25465e-43)
(0.0175873 0.0254587 -1.2057e-43)
(-0.00741181 0.0257632 -7.15886e-43)
(0.0212558 0.0125195 4.28892e-43)
(-0.00832332 0.00630683 6.16194e-43)
(0.0210538 -0.0119932 1.29923e-42)
(-0.0262729 -0.00211937 -6.61302e-43)
(0.0186879 0.000647903 -5.46301e-43)
(-0.036369 0.0298092 -3.37711e-43)
(0.037179 0.0285563 1.64593e-42)
(-0.0106655 0.0123865 -4.25532e-43)
(0.0155087 0.00397019 9.92362e-52)
(-0.00851417 0.00183057 5.65558e-43)
(-0.00110258 0.0114383 1.052e-43)
(0.00769428 0.0055243 2.49516e-43)
(0.0025449 -0.00420648 7.52817e-43)
(-0.00562256 -0.000629509 -1.85073e-51)
(-0.000104537 0.00568465 -1.66256e-43)
(0.000692307 0.00752864 1.41251e-43)
(0.000952548 0.00835244 1.44635e-43)
(0.000892911 0.00985252 -1.50765e-43)
(0.000615861 0.0128083 5.19075e-52)
(0.000948892 0.0168326 2.09095e-43)
(0.00161127 0.0208747 7.18385e-44)
(0.00243606 0.0240635 1.26092e-44)
(0.00321715 0.0259303 -5.10632e-45)
(0.00379886 0.0264295 5.66283e-53)
(0.0040759 0.0259551 1.31799e-44)
(0.00379959 0.0254075 2.75469e-45)
(0.0037792 0.0251167 1.91573e-44)
(0.00347591 0.0252872 -7.06238e-46)
(0.00358378 0.02573 -1.51325e-45)
(0.00364203 0.0261277 2.17195e-44)
(0.00392368 0.0262031 6.05465e-44)
(0.00367128 0.0263375 3.19822e-44)
(0.00382754 0.0266023 3.96595e-44)
(0.00363322 0.0271828 7.17774e-44)
(0.00364579 0.0282232 2.70541e-44)
(0.00369934 0.0295351 1.23168e-44)
(0.00427934 0.0304263 1.302e-44)
(0.00420393 0.0311188 9.66594e-45)
(0.00420252 0.0321315 4.05277e-45)
(0.00428432 0.0334488 0)
(0.00456267 0.0347965 0)
(0.0047252 0.0361205 -1.08226e-52)
(0.00488986 0.0375226 0)
(0.00506423 0.0390111 0)
(0.0054141 0.0403197 0)
(0.00573444 0.0411196 0)
(0.00637177 0.0408431 0)
(0.00619557 0.0399168 3.16076e-45)
(0.00620226 0.0384633 0)
(0.00728946 0.0346185 0)
(0.00726664 0.0282583 0)
(0.00513187 0.0230485 0)
(0.00269652 0.0224097 0)
(0.00159172 0.0270817 1.05488e-44)
(-0.000553831 0.0404557 2.06321e-43)
(-0.0046538 0.070398 -5.13913e-44)
(-0.0079064 0.113855 -5.47327e-43)
(0.0471808 0.101696 8.36847e-43)
(0.00964049 0.0729907 -9.88898e-44)
(0.0357029 0.0370503 -2.1785e-43)
(-0.0102987 0.0205605 0)
(0.0583732 -0.0504958 1.15159e-42)
(-0.0632591 -0.0326898 0)
(0.038175 -0.0282634 -3.04207e-43)
(-0.0389459 0.00582095 -1.04237e-42)
(0.0327902 0.0487059 -6.00145e-43)
(-0.256011 0.395733 -6.19853e-42)
(0.185937 0.876005 -5.41888e-42)
(0.209026 0.73192 -2.25286e-42)
(-8.02601e-05 0.00373253 1.424e-45)
(-0.000108883 0.00743766 0)
(-0.000128129 0.0118529 5.66018e-47)
(-0.000143108 0.0168967 0)
(-0.000163512 0.0225156 0)
(-0.000187451 0.0287211 0)
(-0.000206968 0.035489 0)
(-0.000222913 0.0427701 0)
(-0.000238339 0.0505261 0)
(-0.000254199 0.0587252 0)
(-0.000270482 0.0673383 0)
(-0.000287128 0.0763373 -5.96841e-48)
(-0.000304209 0.0856951 -1.32687e-49)
(-0.000321683 0.0953855 8.00043e-52)
(-0.000339299 0.105382 2.63841e-49)
(-0.000356766 0.115658 1.0007e-49)
(-0.000373867 0.126186 0)
(-0.000390463 0.136937 0)
(-0.000406466 0.147884 -1.71301e-50)
(-0.000421808 0.158999 -9.33153e-51)
(-0.000436423 0.170254 4.15628e-51)
(-0.000450233 0.18162 2.98504e-51)
(-0.000463151 0.19307 0)
(-0.000475084 0.204577 -7.52877e-52)
(-0.00048594 0.216114 0)
(-0.00049563 0.227652 4.30231e-52)
(-0.000504071 0.239167 4.50582e-52)
(-0.000511188 0.25063 0)
(-0.000516916 0.262018 -6.09007e-53)
(-0.000521197 0.273303 -6.28915e-53)
(-0.000523982 0.284462 0)
(-0.000525229 0.295469 0)
(-0.000524905 0.306303 0)
(-0.000522983 0.316938 0)
(-0.000519444 0.327354 0)
(-0.000514277 0.337528 0)
(-0.000507478 0.347439 0)
(-0.00049905 0.357068 0)
(-0.000489003 0.366395 0)
(-0.000477354 0.375401 0)
(-0.000464129 0.38407 0)
(-0.000449359 0.392383 0)
(-0.000433083 0.400325 0)
(-0.000415345 0.40788 0)
(-0.000396198 0.415035 0)
(-0.0003757 0.421775 0)
(-0.000353914 0.428088 0)
(-0.00033091 0.433963 0)
(-0.000306765 0.439388 0)
(-0.000281557 0.444353 0)
(-0.000255372 0.44885 0)
(-0.000228299 0.452869 0)
(-0.000200432 0.456405 0)
(-0.000171865 0.45945 0)
(-0.0001427 0.461999 0)
(-0.000113037 0.464047 0)
(-8.29808e-05 0.465591 0)
(-5.2636e-05 0.466628 0)
(-2.21088e-05 0.467155 0)
(8.49429e-06 0.467173 0)
(3.90672e-05 0.46668 0)
(6.95042e-05 0.465677 0)
(9.97008e-05 0.464167 0)
(0.000129555 0.462151 0)
(0.000158965 0.459634 0)
(0.000187834 0.456619 0)
(0.000216067 0.453111 0)
(0.00024357 0.449118 0)
(0.000270256 0.444645 0)
(0.00029604 0.439701 0)
(0.00032084 0.434295 0)
(0.000344576 0.428436 0)
(0.000367176 0.422135 0)
(0.000388566 0.415403 0)
(0.000408679 0.408254 0)
(0.000427448 0.400699 0)
(0.000444811 0.392754 0)
(0.000460708 0.384433 0)
(0.000475079 0.375753 0)
(0.000487871 0.36673 0)
(0.000499032 0.357383 0)
(0.000508514 0.347731 0)
(0.000516275 0.337792 0)
(0.000522278 0.327588 0)
(0.000526499 0.317139 0)
(0.00052892 0.306469 0)
(0.000529541 0.2956 0)
(0.000528377 0.284557 0)
(0.000525465 0.273362 0)
(0.000520863 0.262042 0)
(0.000514652 0.250621 0)
(0.00050694 0.239126 0)
(0.000497851 0.227583 0)
(0.000487523 0.216018 0)
(0.000476101 0.204458 0)
(0.000463721 0.192929 0)
(0.0004505 0.18146 0)
(0.000436532 0.170076 0)
(0.000421879 0.158806 0)
(0.000406578 0.147678 0)
(0.000390648 0.136718 1.22792e-52)
(0.000374107 0.125956 1.11399e-52)
(0.000356995 0.11542 1.60403e-51)
(0.000339402 0.105138 1.43435e-51)
(0.000321477 0.0951381 1.02172e-50)
(0.000303412 0.0854487 3.85464e-49)
(0.000285393 0.0760963 0)
(0.00026763 0.0671066 6.30557e-48)
(0.000250497 0.0585043 -1.19794e-47)
(0.000234545 0.0503152 4.65923e-49)
(0.000220349 0.0425677 -4.39185e-49)
(0.000207355 0.0352916 -2.04242e-46)
(0.000190851 0.0285256 -1.66608e-47)
(0.000167196 0.0223475 0)
(0.000144174 0.0167936 9.43994e-47)
(0.000133806 0.0117838 0)
(0.000113079 0.00739063 0)
(8.19839e-05 0.00370478 0)
(0.145095 0.347764 0)
(-0.126576 0.313121 -1.66937e-42)
(-0.125518 0.377702 -2.56386e-43)
(-0.111368 0.451773 2.49472e-46)
(-0.0995733 0.526125 0)
(-0.0876003 0.59698 1.68859e-45)
(-0.0755491 0.661991 -3.22254e-45)
(-0.0643249 0.720614 0)
(-0.0542705 0.773175 2.6113e-45)
(-0.0453736 0.820152 2.29907e-45)
(-0.0374989 0.861947 0)
(-0.0304852 0.898851 1.82687e-46)
(-0.0241774 0.931063 1.51726e-46)
(-0.0184373 0.958712 -6.3953e-47)
(-0.0131471 0.981878 -5.07287e-47)
(-0.00820715 1.00061 -1.56326e-46)
(-0.00353317 1.01493 -7.25912e-48)
(0.000947353 1.02485 0)
(0.00529881 1.03038 1.56564e-47)
(0.00958121 1.03152 -3.8614e-48)
(0.0138535 1.02828 -1.9453e-48)
(0.0181766 1.02067 1.00152e-48)
(0.0226166 1.00867 9.26834e-49)
(0.0272489 0.992297 -7.64775e-47)
(0.0321626 0.971515 -7.02726e-48)
(0.037465 0.946275 1.41484e-45)
(0.0432845 0.91649 0)
(0.0497745 0.882024 0)
(0.0571121 0.842661 8.4892e-46)
(0.0654866 0.798073 3.31334e-45)
(0.0750687 0.747788 -1.52694e-45)
(0.0859078 0.69121 -1.13447e-45)
(0.0976858 0.62785 0)
(0.109529 0.558123 2.38171e-44)
(0.121767 0.484307 4.35434e-44)
(0.138418 0.409524 0)
(0.140197 0.340831 2.68329e-44)
(-0.174419 0.379518 4.68853e-44)
(0.000250412 0.00412093 -2.59557e-46)
(0.000360748 0.00438172 -3.46035e-45)
(0.000442454 0.00464975 -2.55407e-45)
(0.000507569 0.00498178 1.4037e-45)
(0.000595298 0.00531726 1.91836e-45)
(0.000650256 0.00559889 -1.75064e-45)
(0.000695714 0.00584313 1.88094e-47)
(0.00073416 0.00605517 3.71389e-45)
(0.000768345 0.00624498 3.70222e-45)
(0.000799335 0.00641896 3.67001e-45)
(0.000828101 0.00658143 2.39478e-45)
(0.000855128 0.00673451 -2.60879e-49)
(0.000880689 0.00687923 -5.66437e-46)
(0.000904752 0.00701638 2.50492e-45)
(0.000927439 0.00714691 0)
(0.000948825 0.0072717 -3.5672e-45)
(0.000968995 0.00739165 -3.08044e-45)
(0.000988057 0.00750757 2.62559e-45)
(0.00100616 0.00762021 3.10799e-45)
(0.00102346 0.00773017 0)
(0.00104013 0.00783795 4.37141e-46)
(0.0010563 0.00794393 8.59418e-46)
(0.00107209 0.00804837 -4.23365e-46)
(0.00108757 0.00815148 3.17415e-45)
(0.00110279 0.00825342 3.18627e-45)
(0.00111778 0.00835434 4.09516e-46)
(0.00113253 0.00845439 4.06449e-46)
(0.00114707 0.00855374 4.0417e-46)
(0.00116139 0.0086526 0)
(0.0011755 0.00875119 -4.02105e-46)
(0.00118943 0.00884977 0)
(0.00120321 0.00894858 -8.07069e-46)
(0.00121686 0.00904789 -4.05559e-46)
(0.00123044 0.00914795 3.29516e-45)
(0.001244 0.00924898 -8.89686e-53)
(0.00125758 0.00935119 -3.73294e-45)
(0.00127123 0.00945477 -3.74758e-45)
(0.00128499 0.00955986 -3.33522e-45)
(0.00129891 0.00966659 0)
(0.00131301 0.00977505 0)
(0.00132732 0.00988531 0)
(0.00134187 0.00999743 -3.36308e-45)
(0.00135668 0.0101114 -3.36811e-45)
(0.00137175 0.0102273 4.65881e-46)
(0.00138709 0.0103451 -3.37608e-45)
(0.00140272 0.0104648 -3.37911e-45)
(0.00141862 0.0105864 4.86906e-46)
(0.0014348 0.0107099 -3.38355e-45)
(0.00145127 0.0108353 -3.38505e-45)
(0.00146801 0.0109625 0)
(0.00148502 0.0110915 -3.38678e-45)
(0.00150231 0.0112223 5.21613e-46)
(0.00151986 0.011355 3.38704e-45)
(0.00153769 0.0114894 -3.38667e-45)
(0.00155577 0.0116256 -2.84404e-45)
(0.00157412 0.0117635 -3.38501e-45)
(0.00159272 0.0119032 -6.76753e-45)
(0.00161158 0.0120447 -2.82039e-45)
(0.0016307 0.0121878 -3.3805e-45)
(0.00165007 0.0123326 -3.37849e-45)
(0.00166969 0.0124791 0)
(0.00168955 0.0126273 -3.37381e-45)
(0.00170967 0.0127771 -2.77713e-45)
(0.00173003 0.0129285 0)
(0.00175062 0.0130815 -3.36526e-45)
(0.00177146 0.0132362 -2.74941e-45)
(0.00179254 0.0133924 0)
(0.00181385 0.0135502 0)
(0.00183539 0.0137095 0)
(0.00185715 0.0138703 -3.34736e-45)
(0.00187915 0.0140327 -6.68665e-45)
(0.00190136 0.0141966 -3.33915e-45)
(0.0019238 0.0143619 -3.33487e-45)
(0.00194645 0.0145288 -3.3305e-45)
(0.00196932 0.0146971 6.6565e-46)
(0.0019924 0.0148669 -3.32149e-45)
(0.0020157 0.0150381 -5.95667e-45)
(0.0020392 0.0152108 -3.31208e-45)
(0.00206291 0.0153849 -3.30721e-45)
(0.00208683 0.0155605 6.93933e-46)
(0.00211095 0.0157375 3.29713e-45)
(0.00213528 0.0159159 -3.2919e-45)
(0.00215981 0.0160958 -2.57567e-45)
(0.00218455 0.0162772 0)
(0.00220948 0.01646 0)
(0.00223462 0.0166443 0)
(0.00225996 0.01683 -3.26406e-45)
(0.00228551 0.0170172 -3.25819e-45)
(0.00231125 0.0172059 0)
(0.0023372 0.0173961 -3.24619e-45)
(0.00236336 0.0175878 -2.48294e-45)
(0.00238972 0.0177811 0)
(0.00241629 0.0179758 0)
(0.00244307 0.0181722 0)
(0.00247006 0.0183701 0)
(0.00249726 0.0185696 0)
(0.00252468 0.0187707 0)
(0.00255232 0.0189734 0)
(0.00258017 0.0191778 -2.37848e-45)
(0.00260825 0.0193838 -3.17771e-45)
(0.00263656 0.0195916 0)
(0.00266509 0.019801 -3.16254e-45)
(0.00269385 0.0200122 -3.15484e-45)
(0.00272284 0.0202252 0)
(0.00275207 0.0204399 3.98628e-45)
(0.00278154 0.0206564 3.13095e-45)
(0.00281125 0.0208748 -3.12266e-45)
(0.00284121 0.021095 8.68551e-46)
(0.00287142 0.0213171 3.10545e-45)
(0.00290188 0.0215411 -3.09651e-45)
(0.0029326 0.021767 -2.19665e-45)
(0.00296357 0.0219948 0)
(0.0029948 0.0222246 0)
(0.0030263 0.0224565 0)
(0.00305806 0.0226903 -3.04843e-45)
(0.0030901 0.0229262 -3.03807e-45)
(0.00312241 0.0231643 0)
(0.003155 0.0234044 -3.0165e-45)
(0.00318787 0.0236467 -2.05086e-45)
(0.00322103 0.0238912 0)
(0.00325448 0.0241379 0)
(0.00328823 0.0243869 -2.96972e-45)
(0.00332227 0.0246382 -2.95731e-45)
(0.00335662 0.0248918 -1.94617e-45)
(0.00339128 0.0251478 -2.93174e-45)
(0.00342626 0.0254062 0)
(0.00346155 0.0256671 -1.87841e-45)
(0.00349717 0.0259305 -2.89141e-45)
(0.00353312 0.0261964 2.87732e-45)
(0.00356941 0.0264649 5.72578e-45)
(0.00360604 0.026736 5.69619e-45)
(0.00364302 0.0270098 2.83294e-45)
(0.00368035 0.0272863 -2.81745e-45)
(0.00371804 0.0275656 -2.80165e-45)
(0.0037561 0.0278477 -2.78556e-45)