/*--------------------------------*- C++ -*----------------------------------*\
| =========                 |                                                 |
| \\      /  F ield         | OpenFOAM: The Open Source CFD Toolbox           |
|  \\    /   O peration     | Version:  2.2.1                                 |
|   \\  /    A nd           | Web:      www.OpenFOAM.org                      |
|    \\/     M anipulation  |                                                 |
\*---------------------------------------------------------------------------*/
FoamFile
{
    version     2.0;
    format      ascii;
    class       volScalarField;
    location    "2e-05";
    object      alpha1;
}
// * * * * * * * * * * * * * * * * * * * * * * * * * * * * * * * * * * * * * //

dimensions      [0 0 0 0 0 0 0];

internalField   nonuniform List<scalar> 
22464
(
0.991967
0.999934
0.999937
0.999765
0.999765
0.999771
0.999751
0.999717
0.999718
0.999705
0.999669
0.999669
0.999686
0.999818
0.999787
0.999707
0.999707
0.999707
0.999707
0.999764
0.999814
0.99973
0.99973
0.99973
0.99973
0.999783
0.999907
0.999818
0.999786
0.999786
0.999836
0.999973
0.999977
0.999781
0.999501
0.999501
0.999501
0.999501
0.999501
0.999659
0.999662
0.999717
0.999904
0.999967
0.999744
0.999127
0.998018
0.992408
0.851851
0.30049
0.0429044
0.0106455
0.0033667
0.00300355
0.00217709
0.00190572
0.00178365
0.00170221
0.00173311
0.00185517
0.00193072
0.00211181
0.0021954
0.00240963
0.00247458
0.0026053
0.00259767
0.00256799
0.00248108
0.00238939
0.00229273
0.00220431
0.00211578
0.00201832
0.00190314
0.00181221
0.00169909
0.0016331
0.00152832
0.0015119
0.0014247
0.00148489
0.00142743
0.00154314
0.00153738
0.00164411
0.00162548
0.00175287
0.00190337
0.00288075
0.00356302
0.00402763
0.00278931
0.00242514
0.00120416
0.00114582
0.000604731
0.000587873
0.00036441
0.000339757
0.000231688
0.000192494
0.000136489
9.43955e-05
5.88969e-05
3.17391e-05
1.36674e-05
4.114e-06
7.02115e-07
4.60754e-08
4.01886e-10
2.00161e-13
4.87465e-18
8.60887e-23
1.32805e-27
2.00765e-32
2.97919e-37
4.23792e-42
5.67379e-47
7.24658e-52
9.06973e-57
1.12695e-61
1.35078e-66
1.36301e-71
1.13398e-76
8.45973e-82
5.86234e-87
3.79425e-92
2.29896e-97
1.30887e-102
7.03905e-108
3.58533e-113
1.73782e-118
8.05997e-124
3.60206e-129
1.56199e-134
6.62511e-140
2.77284e-145
1.15546e-150
4.83085e-156
2.03873e-161
8.71364e-167
3.76254e-172
3.3566e-178
-1.22178e-175
-1.09718e-176
-5.9046e-178
-2.3437e-179
-7.49182e-181
-2.02117e-182
-4.73692e-184
-9.83683e-186
-1.83664e-187
-3.11874e-189
-4.8616e-191
-7.01296e-193
-9.43139e-195
-1.19114e-196
-1.42325e-198
-1.62114e-200
-1.77372e-202
-1.87785e-204
-1.9366e-206
-1.95598e-208
-1.94186e-210
-1.89788e-212
-1.82487e-214
-1.72183e-216
-1.58894e-218
-1.42914e-220
-1.24908e-222
-1.05885e-224
-8.69703e-227
-6.91835e-229
-5.32883e-231
-3.97358e-233
-2.86963e-235
-2.00756e-237
-1.36126e-239
-8.9555e-242
-5.72341e-244
-3.55773e-246
-2.15324e-248
-1.26962e-250
-7.2962e-253
-4.08858e-255
-2.23589e-257
-1.1944e-259
-6.23811e-262
-3.18779e-264
-1.59458e-266
-7.80632e-269
-3.73831e-271
-1.7505e-273
-8.01483e-276
-3.58921e-278
-1.57279e-280
-6.74649e-283
-2.833e-285
-1.16436e-287
-4.68305e-290
-1.84215e-292
-7.08392e-295
-2.66298e-297
-9.78937e-300
-3.52073e-302
-1.2392e-304
-4.26877e-307
-1.44439e-309
-1.80832e-312
0
0
0
0
0
0
0
0
0
0
0
0
0
0
0
0
0
0
0
0
0
0
0
0
0
0
0
0
0
0
0
0
0
0
0
0
0
0
0
0
0
0
0
0
0
0
0
0
0
0
0
0
0
0
0
0
0
0
0
0
0
0
0
0
0
0
0
0
0
0
0
0
0
0
0
0
0
0
0
0
0
0
0
0
0
0
0
0
0
0
0
0
0
0
0
0
0
0
0
0
0
0
0
0
0
0
0
0
0
0
0
0
0
0
0
0
0
0
0
0
0
0
0
0
0
0
0
0
0
0
0
0
0
0
0
0
0
0
0
0
0
0
0
0
0
0
0
0
0
-3.06024e-311
-1.3315e-308
-4.07723e-306
-1.22227e-303
-3.5851e-301
-1.0288e-298
-2.88817e-296
-7.9316e-294
-2.13092e-291
-5.6015e-289
-1.44111e-286
-3.63001e-284
-8.95425e-282
-2.16245e-279
-5.11199e-277
-1.18289e-274
-2.67905e-272
-5.93852e-270
-1.2883e-267
-2.73508e-265
-5.68266e-263
-1.1556e-260
-2.30014e-258
-4.4803e-256
-8.53765e-254
-1.59106e-251
-2.89791e-249
-5.15451e-247
-8.94609e-245
-1.51382e-242
-2.49541e-240
-4.00336e-238
-6.24494e-236
-9.46454e-234
-1.39262e-231
-1.98842e-229
-2.75371e-227
-3.6961e-225
-4.80846e-223
-6.06599e-221
-7.42833e-219
-8.84561e-217
-1.02679e-214
-1.16551e-212
-1.29788e-210
-1.42203e-208
-1.53646e-206
-1.6377e-204
-1.71906e-202
-1.76999e-200
-1.77747e-198
-1.72923e-196
-1.61826e-194
-1.44666e-192
-1.22717e-190
-9.81454e-189
-7.35408e-187
-5.12954e-185
-3.30802e-183
-1.95714e-181
-1.05288e-179
-5.09526e-178
-2.18802e-176
-8.18551e-175
-2.59827e-173
-6.71089e-172
-1.30557e-170
-1.60648e-169
-6.24923e-169
6.89135e-167
1.63078e-161
3.8849e-156
9.33784e-151
2.25128e-145
5.40332e-140
1.27917e-134
2.96018e-129
6.64314e-124
1.4358e-118
2.96925e-113
5.84363e-108
1.08909e-102
1.91661e-97
3.16795e-92
4.90094e-87
7.08078e-82
9.50768e-77
1.14265e-71
1.1311e-66
9.47555e-62
7.69462e-57
6.21898e-52
4.93303e-47
3.73595e-42
2.66333e-37
1.81754e-32
1.21246e-27
7.87512e-23
4.46539e-18
1.84168e-13
3.80648e-10
4.46347e-08
6.89133e-07
4.06355e-06
1.35512e-05
3.15453e-05
5.86304e-05
9.40659e-05
0.000136142
0.000192028
0.00023143
0.000339147
0.00036437
0.000585203
0.000604294
0.00113557
0.00119852
0.00240051
0.00277707
0.00402995
0.00356786
0.00289011
0.00191079
0.00175386
0.00162669
0.00164539
0.00153957
0.00154635
0.00143002
0.0014861
0.00142525
0.00151217
0.00152701
0.00163209
0.00169692
0.00181105
0.00190043
0.00201726
0.0021142
0.00220271
0.00228997
0.00238695
0.00247755
0.00256825
0.00259126
0.00260552
0.00246526
0.00240319
0.00218083
0.00209517
0.00191538
0.00182982
0.00170174
0.00167943
0.00177856
0.00192899
0.0022474
0.00308535
0.00347945
0.0129023
0.0478736
0.354178
0.881827
0.994159
0.997966
0.999112
0.999742
0.999967
0.999904
0.999698
0.999655
0.999655
0.999503
0.999503
0.999503
0.999503
0.999506
0.999806
0.999981
0.999965
0.999817
0.999785
0.999785
0.999835
0.999892
0.999758
0.999729
0.999729
0.999729
0.999736
0.999811
0.999725
0.999702
0.999702
0.999702
0.999705
0.999731
0.999744
0.999754
0.999695
0.999635
0.999635
0.999638
0.999656
0.999665
0.999667
0.999738
0.999892
0.99999
0.999974
0.995122
0
0
0
0
0
0
0
0
0
0
0
0
0
0
0
0
0
0
0
0
0
0
0
0
0
0
0
0
0
0
0
0
0
0
0
0
0
0
0
0
0
0
0
0
0
0
0
0
0
0
0
0
0
0
0
0
0
0
0
0
0
0
0
0
0
0
0
0
0
0
0
0
0
0
0
0
0
0
0
0
0
0
0
0
0
0
0
0
0
0
0
0
0
0
0
0
0
0
0
0
0
0
0
0
0
0
0
0
0
0
0
0
0
0
0
0
0
0
0.987596
0.987441
0.988566
0.992077
0.99272
0.991537
0.991201
0.992607
0.993476
0.99411
0.994635
0.995059
0.995591
0.995954
0.996279
0.996662
0.996995
0.997147
0.997231
0.997418
0.997414
0.996822
0.996539
0.997507
0.998597
0.997848
0.994565
0.995162
0.997905
0.999667
0.999688
0.99863
0.995558
0.99693
0.999008
0.999869
0.999782
0.998244
0
0
0
0
0
0
0
0
0
0
0
0
0
0
0
0
0
0
0
0
0
0
0
0
0
0
0
0
0
0
0
0
0
0
0
0
0
0
0
0
0
0
0
0
0
0
0
0
0
0
0
0
0
0
0
0
0
0
0
0
0
0
0
0
0
0
0
0
0
0
0
-4.06872e-312
-1.63544e-309
-5.01983e-307
-1.51269e-304
-4.46158e-302
-1.28785e-299
-3.63784e-297
-1.00552e-294
-2.71948e-292
-7.19642e-290
-1.86333e-287
-4.72114e-285
-1.17076e-282
-2.84204e-280
-6.75312e-278
-1.5701e-275
-3.57093e-273
-7.9446e-271
-1.72907e-268
-3.68146e-266
-7.66845e-264
-1.56275e-261
-3.11607e-259
-6.08013e-257
-1.161e-254
-2.1694e-252
-3.96602e-250
-7.09072e-248
-1.2391e-245
-2.11528e-243
-3.52543e-241
-5.73273e-239
-9.08863e-237
-1.40359e-234
-2.10966e-232
-3.08372e-230
-4.38073e-228
-6.04439e-226
-8.09076e-224
-1.04955e-221
-1.31872e-219
-1.60426e-217
-1.88954e-215
-2.15569e-213
-2.38455e-211
-2.56185e-209
-2.67897e-207
-2.73412e-205
-2.73227e-203
-2.68185e-201
-2.58949e-199
-2.45925e-197
-2.2919e-195
-2.0864e-193
-1.84349e-191
-1.5693e-189
-1.27704e-187
-9.85737e-186
-7.16299e-184
-4.86384e-182
-3.06333e-180
-1.77387e-178
-9.35555e-177
-4.44366e-175
-1.874e-173
-6.88492e-172
-2.14367e-170
-5.40634e-169
-1.00895e-167
-1.08375e-166
1.96884e-167
1.48726e-161
2.81892e-156
5.2382e-151
9.5426e-146
1.70203e-140
2.96531e-135
5.02668e-130
8.25407e-125
1.30583e-119
1.98013e-114
2.86289e-109
3.92721e-104
5.08882e-99
6.20217e-94
7.07659e-89
7.53043e-84
7.43653e-79
6.77948e-74
5.67162e-69
4.32962e-64
2.99169e-59
1.85229e-54
1.01558e-49
4.85319e-45
1.97615e-40
6.62371e-36
1.71999e-31
5.17713e-28
1.75832e-25
3.60412e-23
5.03269e-19
5.2237e-16
4.40884e-14
7.13316e-13
5.63136e-12
2.76982e-11
9.63368e-11
2.58182e-10
5.71891e-10
1.11428e-09
2.14519e-09
4.89594e-09
1.04799e-05
4.83668e-06
7.00014e-05
4.33844e-05
0.000208197
0.000146109
0.000430093
0.000323113
0.00069454
0.000399981
0.000750938
0.000635364
0.000726843
0.000524031
0.000388942
0.000196956
0.000129777
5.67212e-05
4.03749e-05
2.35685e-05
2.10928e-05
1.83343e-05
1.88727e-05
1.90809e-05
2.06947e-05
2.35037e-05
2.89696e-05
3.95746e-05
7.49196e-05
9.15994e-05
0.00011535
9.78906e-05
9.64368e-05
5.26768e-05
4.77335e-05
3.49675e-05
2.97108e-05
2.25984e-05
1.73642e-05
1.51692e-05
2.57984e-05
8.62435e-05
0.000154128
0.000164337
0.000175572
0.000238533
0.000379538
0.000195115
0.000683718
0.0012247
0.0127098
0.298924
0.85652
0.992183
0.997785
0.996169
0.995836
0.998511
0.999872
0.99997
0.99997
0.999967
0.999966
0.999963
0.999957
0.999956
0.99996
0.999969
0.999984
0.999982
0.999981
0.999983
0.999987
0.999992
0.999992
0.999991
0.999991
0.999992
0.999992
0.999992
0.999992
0.999991
0.99999
0.999989
0.999989
0.999989
0.999989
0.999988
0.999987
0.999984
0.999982
0.999981
0.999983
0.999986
0.99999
0.999994
0.999997
0.999999
0.999999
0.999999
0.999999
0.999998
0.999997
0.999996
0.999996
0.999995
0.999995
0.999995
0.999995
0.999995
0.999995
0.999995
0.999995
0.999995
0.999995
0.999995
0.999995
0.999995
0.999995
0.999995
0.999995
0.999994
0.999994
0.999994
0.999992
0.999988
0.999985
0.999983
0.999984
0.999984
0.999969
0.999963
0.99996
0.999961
0.999966
0.999969
0.99997
0.999973
0.999971
0.999837
0.998313
0.995784
0.996448
0.997901
0.989286
0.819878
0.235626
0.00815168
0.00129607
0.000521067
0.000206846
0.000396413
0.000227277
0.000174117
0.000159412
0.000130248
6.96527e-05
2.302e-05
1.42792e-05
1.76479e-05
2.3533e-05
3.06624e-05
3.63392e-05
4.83577e-05
5.28595e-05
9.54457e-05
9.91128e-05
0.000112719
9.26087e-05
7.37798e-05
4.09136e-05
2.88355e-05
2.34684e-05
2.06474e-05
1.90414e-05
1.88104e-05
1.82766e-05
2.09718e-05
2.332e-05
4.13998e-05
5.60157e-05
0.000127866
0.000192853
0.00038481
0.000518762
0.000725506
0.000635774
0.000751815
0.000405261
0.000706424
0.000329974
0.000438492
0.000148111
0.000211984
4.41281e-05
7.14901e-05
4.98015e-06
1.08647e-05
4.89494e-09
2.11732e-09
1.09551e-09
5.64431e-10
2.57194e-10
9.71639e-11
2.83149e-11
5.83767e-12
7.50255e-13
4.70808e-14
5.65303e-16
5.50223e-19
3.91216e-23
1.93401e-25
5.88459e-28
2.03147e-31
7.85327e-36
2.35044e-40
5.78872e-45
1.21447e-49
2.22032e-54
3.59494e-59
5.2139e-64
6.84449e-69
8.19866e-74
9.01222e-79
9.14406e-84
8.61448e-89
7.56774e-94
6.22433e-99
4.81577e-104
3.5201e-109
2.44163e-114
1.61506e-119
1.02417e-124
6.26068e-130
3.70717e-135
2.13616e-140
1.20248e-145
6.62817e-151
3.58191e-156
1.89784e-161
9.84342e-167
4.38867e-172
-8.49364e-173
-8.64714e-174
-4.83284e-175
-1.96338e-176
-6.40233e-178
-1.76098e-179
-4.20918e-181
-8.92217e-183
-1.70265e-184
-2.96107e-186
-4.74237e-188
-7.05777e-190
-9.84528e-192
-1.29837e-193
-1.63268e-195
-1.97417e-197
-2.31312e-199
-2.64293e-201
-2.95735e-203
-3.24669e-205
-3.49641e-207
-3.68654e-209
-3.79394e-211
-3.79923e-213
-3.6929e-215
-3.47753e-217
-3.16805e-219
-2.79011e-221
-2.37514e-223
-1.95478e-225
-1.55619e-227
-1.19908e-229
-8.95209e-232
-6.48283e-234
-4.55672e-236
-3.1111e-238
-2.06509e-240
-1.33397e-242
-8.39361e-245
-5.14845e-247
-3.08033e-249
-1.79871e-251
-1.02572e-253
-5.71578e-256
-3.11413e-258
-1.65931e-260
-8.64806e-263
-4.40877e-265
-2.19824e-267
-1.07187e-269
-5.1109e-272
-2.38309e-274
-1.08661e-276
-4.84504e-279
-2.11254e-281
-9.00924e-284
-3.75911e-286
-1.53466e-288
-6.1289e-291
-2.39403e-293
-9.14618e-296
-3.41773e-298
-1.2493e-300
-4.46748e-303
-1.563e-305
-5.35071e-308
-1.59967e-310
0
0
0
0
0
0
0
0
0
0
0
0
0
0
0
0
0
0
0
0
0
0
0
0
0
0
0
0
0
0
0
0
0
0
0
0
0
0
0
0
0
0
0
0
0
0
0
0
0
0
0
0
0
0
0
0
0
0
0
0
0
0
0
0
0
0
0
0
0
0
0
0
0
0
0
0
0
0
0
0
0
0
0
0
0
0
0
0
0
0
0
0
0
0
0
0
0
0
0
0
0
0
0
0
0
0
0
0
0
0
0
0
0
0
0
0
0
0
0
0
0
0
0
0
0
0
0
0
0
0
0
0
0
0
0
0
0
0
0
0
0
0
0
0
0
0
0
0
0
0
0
0
0
0
0
0
0
0
0
0
0
0
0
0
0
0
0
0
0
0
0
0
0
0
0
0
0
0
0
0
0
0
0
0
0
0
0
0
0
0.999999
0.999998
0.999997
0.999996
0.999998
0.999998
0.999998
0.999999
0.999999
0.999999
0.999999
1
1
1
1
1
1
1
1
1
1
1
1
1
1
1
1
0.999999
0.999999
0.999999
0.999999
1
0.999999
0.999999
0.999999
0.999999
0
0
0
0
0
0
0
0
0
0
0
0
0
0
0
0
0
0
0
0
0
0
0
0
0
0
0
0
0
0
0
0
0
0
0
0
0
0
0
0
0
0
0
0
0
0
0
0
0
0
0
0
0
0
0
0
0
0
0
0
0
0
0
0
0
0
0
0
0
0
0
0
0
0
0
0
0
0
0
0
0
0
0
0
0
0
0
0
0
0
0
0
0
0
0
0
0
0
0
0
0
0
0
0
0
0
0
0
0
0
0
0
0
0
0
0
1
1
1
1
1
1
1
1
1
1
1
1
1
1
1
1
1
1
1
1
1
1
1
1
1
1
1
0.999999
0.999999
0.999999
0.999999
1
1
1
1
1
1
0.999975
0.999396
0.996743
0.994288
0.994269
0.995771
0.987981
0.815614
0.234708
0.0099001
0.000252119
9.88158e-06
1.10246e-06
1.32146e-07
7.51529e-08
5.84224e-08
4.50624e-08
2.37561e-08
7.07753e-09
2.22093e-09
7.73417e-10
3.4659e-12
3.66648e-12
3.93565e-12
4.20502e-12
4.30849e-12
4.45672e-12
4.52018e-12
4.25054e-11
3.95564e-09
1.88952e-08
1.43417e-08
4.56559e-09
1.90215e-12
1.68884e-12
1.61645e-12
1.57608e-12
1.64066e-12
1.81469e-12
1.98883e-12
2.46265e-12
9.09739e-12
1.88138e-09
5.1264e-08
9.97263e-07
5.37994e-06
1.53611e-05
2.55609e-05
3.77574e-05
2.39127e-05
2.9999e-05
9.09774e-06
9.8121e-06
3.7462e-06
5.12558e-06
9.83391e-07
1.51001e-06
2.30279e-08
3.06393e-08
1.23667e-14
5.50679e-15
1.49218e-15
6.1472e-16
2.18577e-16
6.95448e-17
1.97639e-17
4.73983e-18
9.18684e-19
1.61274e-19
2.1983e-20
2.53403e-21
2.56614e-22
1.97288e-23
8.55411e-25
1.37156e-26
4.43299e-29
1.55737e-32
7.07088e-37
2.70638e-41
8.89075e-46
2.5459e-50
6.43402e-55
1.45126e-59
2.94596e-64
5.42144e-69
9.09343e-74
1.39899e-78
1.98455e-83
2.60726e-88
3.18517e-93
3.62974e-98
3.87058e-103
3.87326e-108
3.64641e-113
3.2386e-118
2.71992e-123
2.16432e-128
1.6349e-133
1.17356e-138
8.02123e-144
5.22682e-149
3.2532e-154
1.9358e-159
1.10403e-164
6.03724e-170
4.23298e-176
-1.16172e-174
-1.49481e-175
-1.1025e-176
-5.99246e-178
-2.63413e-179
-9.81025e-181
-3.1831e-182
-9.16647e-184
-2.37497e-185
-5.59458e-187
-1.20821e-188
-2.40846e-190
-4.45681e-192
-7.69429e-194
-1.24476e-195
-1.89436e-197
-2.71967e-199
-3.69371e-201
-4.75811e-203
-5.82726e-205
-6.79998e-207
-7.57627e-209
-8.07473e-211
-8.24864e-213
-8.09483e-215
-7.64288e-217
-6.95044e-219
-6.09603e-221
-5.16375e-223
-4.23032e-225
-3.35582e-227
-2.58112e-229
-1.92692e-231
-1.39749e-233
-9.85677e-236
-6.77065e-238
-4.5313e-240
-2.95593e-242
-1.88013e-244
-1.16635e-246
-7.05899e-249
-4.16914e-251
-2.40324e-253
-1.35214e-255
-7.42667e-258
-3.9836e-260
-2.08805e-262
-1.06939e-264
-5.34927e-267
-2.61298e-269
-1.24638e-271
-5.80569e-274
-2.64104e-276
-1.17341e-278
-5.09255e-281
-2.15957e-283
-8.95021e-286
-3.62592e-288
-1.43662e-290
-5.56847e-293
-2.11137e-295
-7.83013e-298
-2.84011e-300
-1.00761e-302
-3.49692e-305
-1.18737e-307
-3.90364e-310
0
0
0
0
0
0
0
0
0
0
0
0
0
0
0
0
0
0
0
0
0
0
0
0
0
0
0
0
0
0
0
0
0
0
0
0
0
0
0
0
0
0
0
0
0
0
0
0
0
0
0
0
0
0
0
0
0
0
0
0
0
0
0
0
0
0
0
0
0
0
0
0
0
0
0
0
0
0
0
0
0
0
0
0
0
0
0
0
0
0
0
0
0
0
0
0
0
0
0
0
0
0
0
0
0
0
0
0
0
0
0
0
0
0
0
0
0
0
0
0
0
0
0
0
0
0
0
0
0
0
0
0
0
0
0
0
0
0
-9.49368e-312
-3.51644e-309
-1.09372e-306
-3.32174e-304
-9.8747e-302
-2.87292e-299
-8.17912e-297
-2.27838e-294
-6.20947e-292
-1.65582e-289
-4.32088e-287
-1.10351e-284
-2.75737e-282
-6.73774e-280
-1.60971e-277
-3.75945e-275
-8.58034e-273
-1.91343e-270
-4.16881e-268
-8.87301e-266
-1.84492e-263
-3.7476e-261
-7.43843e-259
-1.44323e-256
-2.73756e-254
-5.07326e-252
-9.18327e-250
-1.62338e-247
-2.80253e-245
-4.7245e-243
-7.7758e-241
-1.24914e-238
-1.95815e-236
-2.99462e-234
-4.46646e-232
-6.49441e-230
-9.19233e-228
-1.26535e-225
-1.69251e-223
-2.1976e-221
-2.76633e-219
-3.37201e-217
-3.97478e-215
-4.52486e-213
-4.96866e-211
-5.25764e-209
-5.35224e-207
-5.23092e-205
-4.89896e-203
-4.38884e-201
-3.75394e-199
-3.05944e-197
-2.37067e-195
-1.74245e-193
-1.21181e-191
-7.95614e-190
-4.91285e-188
-2.84267e-186
-1.53469e-184
-7.69397e-183
-3.56195e-181
-1.51265e-179
-5.84481e-178
-2.03409e-176
-6.29433e-175
-1.70051e-173
-3.90818e-172
-7.3241e-171
-1.02869e-169
-8.55993e-169
5.30813e-171
8.56047e-165
1.50718e-159
2.54097e-154
4.09554e-149
6.30503e-144
9.25364e-139
1.29313e-133
1.71712e-128
2.16447e-123
2.58596e-118
2.92001e-113
3.11048e-108
3.11698e-103
2.93103e-98
2.57897e-93
2.11667e-88
1.616e-83
1.14222e-78
7.44465e-74
4.45104e-69
2.4259e-64
1.19899e-59
5.33691e-55
2.12097e-50
7.44471e-46
2.28001e-41
6.0015e-37
1.33335e-32
3.93878e-29
1.25124e-26
7.91866e-25
1.83718e-23
2.40264e-22
2.39774e-21
2.11388e-20
1.57587e-19
9.09664e-19
4.73789e-18
1.99036e-17
7.04587e-17
2.22558e-16
6.28229e-16
1.53002e-15
5.62379e-15
1.25978e-14
2.51336e-08
2.0025e-08
1.42888e-06
9.37985e-07
4.84359e-06
3.54672e-06
9.34392e-06
8.80241e-06
2.9456e-05
2.37564e-05
3.7899e-05
2.58353e-05
1.56765e-05
5.58948e-06
1.05324e-06
5.56583e-08
1.59388e-09
1.92982e-11
2.85565e-12
1.96926e-12
1.77753e-12
1.61276e-12
1.55483e-12
1.59475e-12
1.66687e-12
1.88285e-12
4.54411e-09
1.30911e-08
1.88018e-08
3.15376e-09
3.63741e-11
4.53818e-12
4.47087e-12
4.29041e-12
4.14948e-12
3.85871e-12
3.57809e-12
3.40861e-12
1.43968e-09
4.21963e-09
1.07091e-08
2.86489e-08
4.82431e-08
6.16864e-08
8.39805e-08
1.59956e-07
1.40426e-06
1.2891e-05
0.000376523
0.0141504
0.298158
0.854864
0.991015
0.995733
0.994379
0.994386
0.997059
0.999555
0.999986
1
1
1
1
1
1
0.999999
0.999999
0.999999
0.999999
1
1
1
1
1
1
1
1
1
1
1
1
1
1
1
1
1
1
1
1
1
1
1
1
1
1
1
1
1
1
1
1
1
1
1
1
1
1
1
1
1
1
1
1
1
1
1
1
1
1
1
1
1
1
1
1
1
1
1
1
1
1
1
1
1
1
1
1
1
1
1
1
1
1
1
1
1
1
1
1
1
1
1
1
1
1
1
1
1
1
1
1
1
1
1
0.999999
0.999974
0.999545
0.997674
0.9967
0.996868
0.996798
0.990163
0.832561
0.255615
0.013291
0.00029529
3.7799e-06
4.90671e-08
2.17091e-09
5.17252e-10
1.48436e-10
1.76873e-11
5.27108e-13
4.53754e-15
1.67897e-15
6.80091e-16
3.55299e-16
2.43299e-16
2.21463e-16
2.63981e-16
4.6359e-16
9.04723e-16
1.68757e-15
2.90101e-15
4.64764e-15
6.92865e-15
9.68849e-15
1.27821e-14
1.61938e-14
2.00491e-14
2.47067e-14
3.06737e-14
3.86181e-14
4.92297e-14
6.34052e-14
8.09952e-14
1.00453e-13
1.22553e-13
2.15569e-13
1.95934e-11
1.14729e-09
1.33084e-08
4.52084e-08
7.74271e-08
1.05595e-07
8.28553e-08
9.22782e-08
1.07783e-08
5.25529e-09
8.89759e-10
4.87432e-10
8.37338e-14
2.34532e-15
4.08484e-16
1.97e-16
7.18579e-17
2.96453e-17
1.17824e-17
4.29412e-18
1.43363e-18
4.41041e-19
1.22945e-19
3.04673e-20
6.53998e-21
1.1767e-21
1.70527e-22
1.89966e-23
1.53853e-24
8.41148e-26
2.75101e-27
4.02967e-29
1.48564e-31
7.25244e-35
3.95076e-39
1.79526e-43
6.96797e-48
2.3525e-52
7.01117e-57
1.86436e-61
4.46614e-66
9.70299e-71
1.92449e-75
3.50404e-80
5.88161e-85
9.14424e-90
1.32177e-94
1.78175e-99
2.24617e-104
2.65607e-109
2.95465e-114
3.09704e-119
3.06657e-124
2.87526e-129
2.5554e-134
2.15735e-139
1.73338e-144
1.32706e-149
9.71131e-155
6.79188e-160
4.54703e-165
2.91393e-170
7.9069e-178
-3.67411e-175
-5.71554e-176
-5.0538e-177
-3.27087e-178
-1.70496e-179
-7.51005e-181
-2.87652e-182
-9.76532e-184
-2.97922e-185
-8.25455e-187
-2.09449e-188
-4.90422e-190
-1.06528e-191
-2.15633e-193
-4.08405e-195
-7.26335e-197
-1.21676e-198
-1.92525e-200
-2.88435e-202
-4.10226e-204
-5.55311e-206
-7.16401e-208
-8.81963e-210
-1.03767e-211
-1.16838e-213
-1.26059e-215
-1.3048e-217
-1.29708e-219
-1.24026e-221
-1.14318e-223
-1.0153e-225
-8.69405e-228
-7.18335e-230
-5.73104e-232
-4.41821e-234
-3.29349e-236
-2.37579e-238
-1.65994e-240
-1.12503e-242
-7.39786e-245
-4.71919e-247
-2.92134e-249
-1.75568e-251
-1.02484e-253
-5.81435e-256
-3.20815e-258
-1.72188e-260
-8.99194e-263
-4.57539e-265
-2.2697e-267
-1.09739e-269
-5.17111e-272
-2.37543e-274
-1.06404e-276
-4.64932e-279
-1.98299e-281
-8.25741e-284
-3.35735e-286
-1.33308e-288
-5.17713e-291
-1.9672e-293
-7.31056e-296
-2.65639e-298
-9.43822e-301
-3.27955e-303
-1.11466e-305
-3.70667e-308
-1.36973e-310
0
0
0
0
0
0
0
0
0
0
0
0
0
0
0
0
0
0
0
0
0
0
0
0
0
0
0
0
0
0
0
0
0
0
0
0
0
0
0
0
0
0
0
0
0
0
0
0
0
0
0
0
0
0
0
0
0
0
0
0
0
0
0
0
0
0
0
0
0
0
0
0
0
0
0
0
0
0
0
0
0
0
0
0
0
0
0
0
0
0
0
0
0
0
0
0
0
0
0
0
0
0
0
0
0
0
0
0
0
0
0
0
0
0
0
0
0
0
0
0
0
0
0
0
0
0
0
0
0
0
0
0
0
0
0
0
0
0
0
0
0
0
0
0
0
0
0
0
0
0
0
0
0
0
0
0
0
0
0
0
0
0
0
0
0
0
0
0
0
0
0
0
0
0
0
0
0
0
0
0
0
0
0
0
0
0
0
0
0
0
0
0
0
0
0
0
0
0
0
0
0
0
0
0
0
0
0
0
0
0
0
0
0
0
0
0
0
0
0
0
0
0
0
0
0
0
0
0
0
0
0
0
0
0
0
0
0
0
0
0
0
0
0
0
0
0
0
0
-1.80832e-312
-1.02264e-309
-3.31126e-307
-1.02634e-304
-3.11391e-302
-9.2463e-300
-2.68659e-297
-7.63715e-295
-2.12369e-292
-5.77653e-290
-1.53733e-287
-4.0048e-285
-1.02085e-282
-2.54241e-280
-6.18504e-278
-1.46968e-275
-3.41037e-273
-7.7239e-271
-1.70665e-268
-3.67797e-266
-7.7292e-264
-1.58402e-261
-3.16669e-259
-6.17158e-257
-1.17095e-254
-2.16235e-252
-3.88574e-250
-6.79141e-248
-1.15365e-245
-1.90382e-243
-3.05092e-241
-4.74663e-239
-7.171e-237
-1.05157e-234
-1.49474e-232
-2.05783e-230
-2.74169e-228
-3.53279e-226
-4.39966e-224
-5.29193e-222
-6.14314e-220
-6.87902e-218
-7.43526e-216
-7.73759e-214
-7.74288e-212
-7.44296e-210
-6.86527e-208
-6.06913e-206
-5.1357e-204
-4.15424e-202
-3.20862e-200
-2.36408e-198
-1.65685e-196
-1.10215e-194
-6.94361e-193
-4.13298e-191
-2.31787e-189
-1.22103e-187
-6.02078e-186
-2.76911e-184
-1.18229e-182
-4.65702e-181
-1.68115e-179
-5.51674e-178
-1.62888e-176
-4.27023e-175
-9.76111e-174
-1.89455e-172
-2.98731e-171
-3.50265e-170
-2.41381e-169
-1.72351e-185
3.46425e-165
5.19408e-160
7.45283e-155
1.02254e-149
1.34022e-144
1.67378e-139
1.9894e-134
2.246e-129
2.40344e-124
2.43534e-119
2.33094e-114
2.10211e-109
1.78332e-104
1.41901e-99
1.05592e-94
7.32733e-90
4.72672e-85
2.82466e-80
1.55623e-75
7.87185e-71
3.63578e-66
1.52337e-61
5.7523e-57
1.93895e-52
5.77289e-48
1.49616e-43
3.3148e-39
6.13113e-35
1.30132e-31
3.62463e-29
2.51685e-27
7.76843e-26
1.42968e-24
1.77306e-23
1.59729e-22
1.10571e-21
6.16417e-21
2.88009e-20
1.16529e-19
4.18908e-19
1.3637e-18
4.08891e-18
1.12368e-17
2.83084e-17
6.87766e-17
1.87751e-16
3.91775e-16
2.24638e-15
7.84832e-14
4.14736e-10
7.65204e-10
4.72672e-09
1.00035e-08
8.85033e-08
8.07581e-08
1.04896e-07
7.76175e-08
4.62075e-08
1.40057e-08
1.25629e-09
2.24976e-11
2.21454e-13
1.18961e-13
9.72986e-14
7.84591e-14
6.13477e-14
4.75282e-14
3.72032e-14
2.94931e-14
2.37253e-14
1.92403e-14
1.5547e-14
1.22795e-14
9.31949e-15
6.67075e-15
4.47905e-15
2.79697e-15
1.62676e-15
8.70794e-16
4.45678e-16
2.55662e-16
2.16906e-16
2.40011e-16
3.61957e-16
7.25445e-16
1.79086e-15
4.71687e-15
7.91324e-13
2.92644e-11
2.57043e-10
8.7948e-10
3.6389e-09
8.26229e-08
6.16969e-06
0.000469886
0.0195066
0.32299
0.869886
0.993224
0.996763
0.996544
0.996538
0.998138
0.99971
0.999985
1
1
1
1
1
1
1
1
1
1
1
1
1
1
1
1
1
1
1
1
1
1
1
1
1
1
1
1
1
1
1
1
1
1
1
1
1
1
1
1
1
1
1
1
1
1
1
1
1
1
1
1
1
1
1
1
1
1
1
1
1
1
1
1
1
1
1
0
1
1
1
1
1
1
1
1
1
1
1
1
1
1
1
1
1
1
1
1
1
1
1
1
1
1
1
1
1
1
1
1
0.999998
0.999964
0.999765
0.999259
0.998886
0.999005
0.999006
0.992622
0.863043
0.310073
0.019939
0.00046775
7.44317e-06
7.57747e-08
6.32377e-10
5.97988e-12
4.41489e-13
1.80484e-13
6.28379e-14
2.01841e-14
8.5369e-15
3.47017e-15
1.27797e-15
4.47397e-16
1.80867e-16
9.8367e-17
7.68016e-17
9.0619e-17
1.91859e-16
3.337e-16
5.10061e-16
7.47946e-16
1.05918e-15
1.45717e-15
1.99599e-15
2.73984e-15
3.77596e-15
5.22971e-15
7.2069e-15
9.76613e-15
1.29407e-14
1.6787e-14
2.13151e-14
2.63049e-14
3.10536e-14
3.51156e-14
4.03989e-14
1.04286e-13
1.06353e-12
4.19574e-12
8.02917e-12
1.18442e-11
1.24196e-11
1.05804e-11
3.25829e-13
6.47007e-14
6.2388e-15
1.02928e-15
1.09105e-16
4.67333e-17
1.60206e-17
5.4649e-18
1.75055e-18
5.28889e-19
1.52036e-19
4.19461e-20
1.08714e-20
2.61524e-21
5.73108e-22
1.12183e-22
1.91561e-23
2.7722e-24
3.28353e-25
3.05167e-26
2.10673e-27
9.95681e-29
2.79499e-30
3.4702e-32
1.10084e-34
4.81392e-38
2.78229e-42
1.35591e-46
5.69455e-51
2.09638e-55
6.84816e-60
2.00433e-64
5.29113e-69
1.26765e-73
2.77154e-78
5.55324e-83
1.02434e-87
1.74692e-92
2.76289e-97
4.06759e-102
5.5961e-107
7.21034e-112
8.72142e-117
9.93024e-122
1.06727e-126
1.08402e-131
1.04302e-136
9.53213e-142
8.28072e-147
6.85058e-152
5.40281e-157
4.07089e-162
2.93038e-167
2.01758e-172
-5.31087e-176
-5.0309e-176
-7.17635e-177
-6.21191e-178
-4.05709e-179
-2.16819e-180
-9.87986e-182
-3.93708e-183
-1.39634e-184
-4.46475e-186
-1.29969e-187
-3.47168e-189
-8.56443e-191
-1.96178e-192
-4.19156e-194
-8.38676e-196
-1.57746e-197
-2.79648e-199
-4.68497e-201
-7.43493e-203
-1.12008e-204
-1.60493e-206
-2.19111e-208
-2.85595e-210
-3.5588e-212
-4.25146e-214
-4.86753e-216
-5.34708e-218
-5.64193e-220
-5.72368e-222
-5.5897e-224
-5.26047e-226
-4.77265e-228
-4.1818e-230
-3.54283e-232
-2.90045e-234
-2.29604e-236
-1.75857e-238
-1.30397e-240
-9.36772e-243
-6.52665e-245
-4.40964e-247
-2.89388e-249
-1.84667e-251
-1.14465e-253
-6.89376e-256
-4.03566e-258
-2.2973e-260
-1.27212e-262
-6.85491e-265
-3.59574e-267
-1.8369e-269
-9.17003e-272
-4.46706e-274
-2.12176e-276
-9.82726e-279
-4.43952e-281
-1.95665e-283
-8.41526e-286
-3.5326e-288
-1.44882e-290
-5.80854e-293
-2.2805e-295
-8.75653e-298
-3.28613e-300
-1.20525e-302
-4.32077e-305
-1.5143e-307
-5.21205e-310
-4.67533e-313
0
0
0
0
0
0
0
0
0
0
0
0
0
0
0
0
0
0
0
0
0
0
0
0
0
0
0
0
0
0
0
0
0
0
0
0
0
0
0
0
0
0
0
0
0
0
0
0
0
0
0
0
0
0
0
0
0
0
0
0
0
0
0
0
0
0
0
0
0
0
0
0
0
0
0
0
0
0
0
0
0
0
0
0
0
0
0
0
0
0
0
0
0
0
0
0
0
0
0
0
0
0
0
0
0
0
0
0
0
0
0
0
0
0
0
0
0
0
0
0
0
0
0
0
0
0
0
0
0
0
0
0
-2.62121e-311
-5.46122e-309
-1.64021e-306
-4.83179e-304
-1.39204e-301
-3.92171e-299
-1.08027e-296
-2.90914e-294
-7.65937e-292
-1.97289e-289
-4.97796e-287
-1.22823e-284
-2.96227e-282
-6.97617e-280
-1.60383e-277
-3.59875e-275
-7.87949e-273
-1.68305e-270
-3.50681e-268
-7.13294e-266
-1.41888e-263
-2.74993e-261
-5.19091e-259
-9.54043e-257
-1.70667e-254
-2.97052e-252
-5.02871e-250
-8.2767e-248
-1.32411e-245
-2.06162e-243
-3.11954e-241
-4.58082e-239
-6.52818e-237
-9.02134e-235
-1.20788e-232
-1.56606e-230
-1.96503e-228
-2.38479e-226
-2.80193e-224
-3.18164e-222
-3.48648e-220
-3.68568e-218
-3.75494e-216
-3.68244e-214
-3.47305e-212
-3.14697e-210
-2.73709e-208
-2.28573e-206
-1.82758e-204
-1.39748e-202
-1.02003e-200
-7.09561e-199
-4.69589e-197
-2.95098e-195
-1.75718e-193
-9.89114e-192
-5.25169e-190
-2.62108e-188
-1.22553e-186
-5.34759e-185
-2.16786e-183
-8.12189e-182
-2.7945e-180
-8.76403e-179
-2.48121e-177
-6.26268e-176
-1.38602e-174
-2.62663e-173
-4.10741e-172
-4.94396e-171
-3.78193e-170
-4.2012e-170
2.16484e-167
3.03074e-162
4.03747e-157
5.13865e-152
6.23476e-147
7.2039e-142
7.91132e-137
8.25286e-132
8.15531e-127
7.61575e-122
6.71297e-117
5.56986e-112
4.3383e-107
3.16449e-102
2.15668e-97
1.36839e-92
8.05179e-88
4.38051e-83
2.19411e-78
1.00728e-73
4.22086e-69
1.60568e-64
5.51177e-60
1.69595e-55
4.63447e-51
1.11105e-46
2.29747e-42
4.00917e-38
9.49865e-35
3.07256e-32
2.51559e-30
9.0491e-29
1.92797e-27
2.80799e-26
3.03515e-25
2.57261e-24
1.78387e-23
1.04793e-22
5.36858e-22
2.45617e-21
1.02347e-20
3.9577e-20
1.43746e-19
5.00983e-19
1.6608e-18
5.20475e-18
1.53004e-17
4.45739e-17
1.04562e-16
8.15199e-16
5.09465e-15
5.60626e-14
2.86657e-13
9.72984e-12
1.17205e-11
1.13584e-11
7.84928e-12
4.22103e-12
1.11153e-12
1.09481e-13
3.94844e-14
3.41188e-14
3.01492e-14
2.54941e-14
2.05981e-14
1.61819e-14
1.24532e-14
9.38594e-15
6.91735e-15
5.01388e-15
3.61778e-15
2.62452e-15
1.91526e-15
1.3997e-15
1.01867e-15
7.19983e-16
4.9138e-16
3.21323e-16
1.83865e-16
8.69026e-17
7.50585e-17
9.72243e-17
1.81134e-16
4.42213e-16
1.21888e-15
3.28839e-15
8.22319e-15
2.01169e-14
7.87546e-14
2.69771e-13
6.36058e-13
9.73898e-12
1.11327e-09
1.2815e-07
1.18886e-05
0.000731292
0.0291884
0.38491
0.896177
0.995218
0.998898
0.998887
0.99891
0.99937
0.99982
0.999975
0.999999
1
1
1
1
1
1
1
1
1
1
1
1
1
1
1
1
1
1
1
1
1
1
1
1
1
1
1
1
1
1
1
1
0
0
0
0
0
0
0
0
0
0
0
0
0
0
0
0
0
0
0
0
0
0
0
0
0
0
0
0
0
0
0
0
0
0
0
0
0
0
0
0
0
0
0
0
0
0
0
0
0
0
0
0
0
0
0
0
0
0
0
0
0
0
0
0
0
0
0
0
0
0
0
0
0
0
0
0
0
0
0
0
0
0
0
0
0
0
0
0
0
0
0
0
0
0
0
0
0
0
0
0
0
0
0
0
0
0
0
0
0
1
1
1
1
1
1
1
1
1
1
1
1
1
1
1
1
1
1
1
1
1
1
1
1
1
1
1
1
1
1
1
1
1
1
1
1
1
1
1
1
1
1
1
1
1
1
1
1
1
1
1
1
1
1
1
1
1
1
1
1
0
0
0
0
0
0
0
0
0
0
0
0
0
0
0
0
0
0
0
0
0
0
0
0
0
0
0
0
0
0
0
0
0
0
0
0
0
0
0
0
0
0
0
0
0
0
0
0
0
0
0
0
0
0
0
0
0
0
0
0
0
0
0
0
0
0
0
0
0
0
0
0
0
0
0
0
0
0
0
0
0
0
0
0
0
0
0
0
0
0
0
0
0
0
0
0
0
0
0
0
0
0
0
0
0
0
0
0
0
0
0
0
0
0
0
0
0
0
0
0
0
0
0
0
0
0
0
0
0
0
0
0
0
0
0
0
0
0
0
0
0
0
0
0
0
0
0
0
0
0
0
0
0
0
0
0
0
0
0
0
0
0
0
0
0
0
0
0
0
0
0
0
-2.07118e-310
-6.24393e-308
-1.84448e-305
-5.32629e-303
-1.5033e-300
-4.14663e-298
-1.11791e-295
-2.95538e-293
-7.65545e-291
-1.93657e-288
-4.78345e-286
-1.15354e-283
-2.71543e-281
-6.23859e-279
-1.39872e-276
-3.06357e-274
-6.55475e-272
-1.37167e-269
-2.79788e-267
-5.56157e-265
-1.07707e-262
-2.03164e-260
-3.73151e-258
-6.67207e-256
-1.16224e-253
-1.96937e-251
-3.24486e-249
-5.19689e-247
-8.08717e-245
-1.22229e-242
-1.79375e-240
-2.55664e-238
-3.5341e-236
-4.73551e-234
-6.14749e-232
-7.72725e-230
-9.3991e-228
-1.10562e-225
-1.25688e-223
-1.37986e-221
-1.46187e-219
-1.49334e-217
-1.47083e-215
-1.39432e-213
-1.27097e-211
-1.11282e-209
-9.34857e-208
-7.52625e-206
-5.79911e-204
-4.27055e-202
-3.00263e-200
-2.01143e-198
-1.2813e-196
-7.7458e-195
-4.43393e-193
-2.39743e-191
-1.22109e-189
-5.84251e-188
-2.61544e-186
-1.09093e-184
-4.21958e-183
-1.50488e-181
-4.91514e-180
-1.45804e-178
-3.8871e-177
-9.18296e-176
-1.88581e-174
-3.27121e-173
-4.56903e-172
-4.68237e-171
-2.785e-170
-2.42497e-170
9.96083e-166
1.31451e-160
1.65455e-155
1.9846e-150
2.26611e-145
2.45886e-140
2.52927e-135
2.46355e-130
2.26584e-125
1.96275e-120
1.59776e-115
1.21936e-110
8.69865e-106
5.77571e-101
3.55932e-96
2.02695e-91
1.06189e-86
5.0982e-82
2.23265e-77
8.87513e-73
3.18978e-68
1.0325e-63
3.00138e-59
7.81582e-55
1.81646e-50
3.7345e-46
6.67908e-42
2.40878e-38
1.11065e-35
1.18484e-33
5.15463e-32
1.30057e-30
2.22874e-29
2.83264e-28
2.82743e-27
2.31136e-26
1.5993e-25
9.61878e-25
5.13837e-24
2.48181e-23
1.10058e-22
4.53162e-22
1.75391e-21
6.37454e-21
2.19539e-20
7.07983e-20
2.1768e-19
6.28209e-19
1.74438e-18
4.50889e-18
1.10679e-17
2.36694e-17
1.41779e-16
2.33523e-16
2.87497e-16
2.99932e-16
3.24245e-16
3.79199e-16