/*--------------------------------*- C++ -*----------------------------------*\
| =========                 |                                                 |
| \\      /  F ield         | OpenFOAM: The Open Source CFD Toolbox           |
|  \\    /   O peration     | Version:  2.2.1                                 |
|   \\  /    A nd           | Web:      www.OpenFOAM.org                      |
|    \\/     M anipulation  |                                                 |
\*---------------------------------------------------------------------------*/
FoamFile
{
    version     2.0;
    format      ascii;
    class       volScalarField;
    location    "2e-05";
    object      p_rgh;
}
// * * * * * * * * * * * * * * * * * * * * * * * * * * * * * * * * * * * * * //

dimensions      [1 -1 -2 0 0 0 0];

internalField   nonuniform List<scalar> 
22464
(
2836.21
455.558
526.52
404.881
162.771
-126.784
-407.617
-669.976
-932.609
-1172.76
-1385.64
-1600.74
-1817.34
-2074.39
-2259.65
-2411.86
-2598.73
-2780.88
-2957.7
-3159.37
-3348.88
-3477.72
-3635.94
-3794.03
-3948.44
-4128.18
-4318.26
-4433.32
-4553.06
-4687.6
-4851.32
-5002.87
-5130.55
-5209.48
-5206.98
-5328.61
-5449.15
-5561.79
-5681.58
-5887.42
-5982.35
-6078.97
-6024.85
-5755.36
-5282.99
-4675.61
-3411.41
-371.345
1813.39
-196.87
-386.605
109.166
109.132
106.663
105.721
95.1016
102.157
104.004
110.257
123.03
131.289
145.931
151.675
168.719
172.762
182.972
180.841
176.416
168.231
160.438
153.869
148.787
144.596
139.698
133.472
128.87
122.057
118.004
110.292
107.902
99.8574
101.284
93.3473
97.6949
93.846
98.1499
93.7451
93.1753
106.466
192.5
309.321
395.381
210.455
172.356
88.1298
86.0305
61.315
62.3519
54.2561
55.5551
51.6662
50.9097
48.5737
46.365
44.386
42.7558
41.6494
41.0168
40.6483
40.3404
40.0357
39.7318
39.4298
39.1293
38.8299
38.5314
38.2337
37.9371
37.642
37.3482
37.0557
36.7642
36.4736
36.1838
35.8949
35.6068
35.3196
35.0338
34.7496
34.4671
34.1859
33.9057
33.6263
33.3478
33.0707
32.7951
32.5208
32.2472
31.974
31.7012
31.4292
31.1582
30.8885
30.62
30.353
30.0874
29.8233
29.5605
29.2988
29.0376
28.7769
28.5167
28.2574
27.999
27.7416
27.4849
27.2287
26.9729
26.7176
26.4629
26.2093
25.9565
25.7044
25.4528
25.2015
24.9508
24.7009
24.4519
24.2038
23.9563
23.7093
23.4627
23.2165
22.9709
22.726
22.4817
22.238
21.9947
21.7519
21.5098
21.2685
21.0279
20.7881
20.5488
20.3099
20.0712
19.8329
19.5951
19.3581
19.1221
18.887
18.6528
18.4192
18.1861
17.9534
17.7215
17.4905
17.2607
17.0323
16.8052
16.5793
16.3543
16.1301
15.9067
15.684
15.4622
15.2413
15.0211
14.8018
14.5831
14.3649
14.1473
13.9303
13.7138
13.4979
13.2826
13.068
12.854
12.6405
12.4276
12.2153
12.0036
11.7925
11.5821
11.3724
11.1633
10.9547
10.7466
10.5388
10.3314
10.1243
9.91768
9.71148
9.50578
9.30059
9.09585
8.89148
8.68737
8.4834
8.27947
8.07554
7.87161
7.66772
7.46391
7.26024
7.05674
6.85341
6.65029
6.44741
6.24487
6.04282
5.84148
5.6411
5.4419
5.24406
5.04768
4.85274
4.65916
4.4668
4.27551
4.08518
3.89578
3.70735
3.51998
3.3338
3.14892
2.96535
2.78301
2.60166
2.42096
2.24055
2.06015
1.87975
1.69967
1.52063
1.34363
1.16944
0.99891
0.832087
0.669238
0.511387
0.363341
0.233064
0.130786
0.0278385
0.0321296
0.14288
0.252754
0.388672
0.538657
0.696188
0.858075
1.02392
1.19379
1.3674
1.54411
1.72308
1.90347
2.0846
2.26611
2.44797
2.63034
2.81347
2.99758
3.18282
3.36925
3.55689
3.74571
3.93567
4.12672
4.31882
4.51194
4.70607
4.90116
5.09718
5.29406
5.49171
5.69007
5.88902
6.08849
6.28841
6.48875
6.68948
6.89064
7.09226
7.29438
7.49704
7.70026
7.90401
8.10823
8.31283
8.5177
8.72271
8.92776
9.13277
9.33774
9.54271
9.74779
9.95312
10.1589
10.3652
10.5724
10.7803
10.9892
11.1989
11.4093
11.6205
11.8322
12.0444
12.2569
12.4698
12.6829
12.8964
13.1104
13.3249
13.5399
13.7557
13.9723
14.1897
14.4079
14.627
14.8469
15.0674
15.2885
15.5101
15.7322
15.9546
16.1776
16.4011
16.6253
16.8505
17.0767
17.304
17.5326
17.7625
17.9935
18.2255
18.4586
18.6924
18.9269
19.1619
19.3976
19.6339
19.8708
20.1085
20.3469
20.5861
20.8259
21.0665
21.3076
21.5492
21.7912
22.0335
22.2761
22.519
22.7621
23.0057
23.2497
23.4944
23.7399
23.9863
24.2334
24.4813
24.73
24.9792
25.2289
25.4791
25.7297
25.9808
26.2324
26.4845
26.7373
26.9908
27.2452
27.5005
27.7567
28.0138
28.2715
28.53
28.7894
29.0496
29.3109
29.5732
29.8367
30.1012
30.3666
30.633
30.9004
31.1689
31.4384
31.7091
31.981
32.2539
32.5277
32.8025
33.0781
33.3547
33.6324
33.9113
34.1915
34.4729
34.7552
35.0385
35.3226
35.6078
35.894
36.1815
36.4702
36.76
37.0506
37.3422
37.6346
37.928
38.2224
38.518
38.8147
39.1125
39.4114
39.7113
40.013
40.3158
40.6217
40.9871
41.6143
42.7143
44.339
46.3155
48.5272
50.8672
51.6483
55.5623
54.2892
62.3181
61.3441
85.5916
87.8877
170.141
209.248
396.049
310.312
193.71
106.906
93.2104
93.7033
98.1276
93.8916
97.8523
93.3479
101.152
99.7299
107.806
110.044
117.768
121.754
128.654
133.136
139.492
144.362
148.519
153.525
160.097
167.88
176.447
180.35
183.191
172.114
168.361
150.549
144.631
129.886
120.17
107.11
101.69
100.301
95.5135
107.073
98.1731
109.389
85.0476
-395.484
-90.8684
830.752
-1090.06
-3727.86
-4839.02
-5397.4
-5798.95
-6003.57
-6037.97
-5933.36
-5832.47
-5647.58
-5542.99
-5446.81
-5346.81
-5242.6
-5272.18
-5194.14
-5097.56
-4955.58
-4832.43
-4729.42
-4649.19
-4556.18
-4392.9
-4263.81
-4149.17
-4034.28
-3920.44
-3830.74
-3673
-3537.91
-3414.75
-3289.5
-3162.44
-3044.95
-2921.17
-2794.54
-2635.96
-2472.12
-2335.81
-2196.89
-2059.94
-1915.31
-1767.49
-1670.33
-1626.99
-1582.58
-1626.6
-401.661
0.047073
0.0562326
0.0594696
0.059734
0.059506
0.0593429
0.0577304
0.0574047
0.0623697
0.077949
0.0839177
0.0867936
0.0886236
0.0899777
0.090941
0.0915941
0.0919885
0.0921747
0.0921951
0.0920827
0.0918606
0.0915437
0.0911412
0.0906601
0.0901069
0.0894867
0.0888049
0.088067
0.0872779
0.0864424
0.0855649
0.0846504
0.0837039
0.0827294
0.0817316
0.080715
0.0796851
0.0786466
0.0776051
0.0765661
0.0755352
0.0745184
0.0735216
0.0725504
0.07161
0.0707057
0.0698424
0.0690248
0.0682566
0.067542
0.0668845
0.0662869
0.0657522
0.0652827
0.0648801
0.0645463
0.0642828
0.0640909
0.0639715
0.0639248
0.0639517
0.0640522
0.064226
0.0644725
0.0647902
0.0651779
0.0656339
0.0661557
0.0667407
0.0673857
0.0680876
0.0688425
0.0696467
0.0704962
0.071387
0.0723153
0.0732763
0.0742661
0.0752801
0.0763137
0.0773626
0.0784226
0.0794888
0.0805561
0.0816195
0.0826732
0.0837112
0.0847266
0.0857118
0.086658
0.087557
0.0884005
0.0891808
0.089892
0.0905302
0.0910936
0.0915818
0.0919942
0.0923277
0.0925735
0.0927142
0.0927191
0.0925417
0.092115
0.0913531
0.0901561
0.0883207
0.0852206
0.0784446
0.0629738
0.0575754
0.0594374
0.061503
0.0606105
0.0608594
0.0625014
0.0604586
0.0515196
828.66
691.766
389.607
-233.732
-285.363
-46.4753
56.2855
-218.206
-314.258
-361.727
-397.877
-417.309
-461.8
-473.179
-481.599
-507.6
-527.881
-517.831
-501.501
-513.762
-497.62
-351.423
-226.146
-406.246
-449.739
-385.08
462.655
371.141
-101.253
-69.3893
77.7146
132.267
1073.15
726.183
427.034
575.386
596.035
691.967
0.17613
0.294031
0.425766
0.565441
0.716006
0.872745
1.03495
1.20208
1.37354
1.54848
1.72606
1.90545
2.08594
2.26714
2.4489
2.6313
2.81448
2.9986
3.18378
3.37011
3.5576
3.74625
3.93606
4.127
4.31903
4.51214
4.70629
4.90144
5.09753
5.29448
5.49221
5.69061
5.88959
6.08905
6.28893
6.4892
6.68985
6.89091
7.09243
7.29445
7.49703
7.70017
7.90385
8.10802
8.31258
8.5174
8.72235
8.92732
9.13224
9.33711
9.54197
9.74693
9.95216
10.1578
10.3641
10.5712
10.7791
10.988
11.1977
11.4082
11.6193
11.831
12.0431
12.2556
12.4684
12.6815
12.895
13.1089
13.3233
13.5383
13.7541
13.9707
14.188
14.4063
14.6254
14.8453
15.0658
15.2869
15.5084
15.7304
15.9528
16.1757
16.3992
16.6233
16.8484
17.0746
17.302
17.5306
17.7604
17.9914
18.2235
18.4566
18.6903
18.9248
19.1598
19.3955
19.6317
19.8686
20.1063
20.3446
20.5838
20.8237
21.0642
21.3053
21.5469
21.7888
22.0311
22.2737
22.5165
22.7596
23.003
23.247
23.4917
23.7372
23.9835
24.2307
24.4786
24.7272
24.9763
25.226
25.4762
25.7268
25.9778
26.2293
26.4814
26.7341
26.9876
27.242
27.4973
27.7534
28.0104
28.2681
28.5266
28.7858
29.046
29.3072
29.5695
29.833
30.0974
30.3628
30.6291
30.8964
31.1647
31.4342
31.7048
31.9766
32.2494
32.5232
32.7978
33.0733
33.3498
33.6273
33.9062
34.1862
34.4674
34.7496
35.0325
35.3164
35.6012
35.8872
36.1744
36.4627
36.752
37.0421
37.333
37.6246
37.917
38.2102
38.5043
38.7991
39.0944
39.3896
39.6841
39.9769
40.2645
40.5344
40.7721
40.9854
41.202
41.44
41.6971
41.9077
42.3931
42.3358
43.3312
42.9257
44.5126
43.2304
47.3612
44.5277
52.3416
46.8037
51.4317
46.392
54.8558
55.1933
61.8658
53.4273
49.5571
48.725
48.9131
48.9757
49.2293
49.1348
49.6482
49.6873
50.2924
50.5809
51.2232
51.681
52.3383
52.8715
53.5695
54.0514
54.6685
54.7587
55.1628
55.0656
55.4746
55.3392
55.5335
55.3677
55.2777
54.8
55.0638
54.7687
54.1368
52.7452
52.8428
45.9262
54.7015
30.3095
6.62211
-7.33912
-227.997
-971.467
-3441.8
-4487.62
-4982.17
-5579.6
-5696.29
-5987.4
-5969.2
-5856.59
-5790.86
-5718.23
-5633.82
-5543.11
-5453.62
-5364.2
-5274
-5175.95
-5081.33
-4982.62
-4880.37
-4774.33
-4665.69
-4555.34
-4443.84
-4328.88
-4212.36
-4093.38
-3973.03
-3852.02
-3729.33
-3605.66
-3479.97
-3353.33
-3225.95
-3097.43
-2966.53
-2834.46
-2701.09
-2565.25
-2428.15
-2290.27
-2153.41
-2020.45
-1897.13
-1789.57
-1708.32
-1655.21
-1632.89
594.577
412.787
195.912
-36.5401
-287.884
-546.897
-800.107
-1043.07
-1275.62
-1498.39
-1713.59
-1920.12
-2119.15
-2313.13
-2502.7
-2686.44
-2866.5
-3043.35
-3215.88
-3384.54
-3550.1
-3713.33
-3871.06
-4025.55
-4176.74
-4322.12
-4465.77
-4605.24
-4740.4
-4870.5
-4992.51
-5110.61
-5228.3
-5338.45
-5447.34
-5550.27
-5654.74
-5748.77
-5828.63
-5922.17
-6020.12
-6020.66
-5666.23
-5520.61
-4891.13
-4458.45
-3464.43
-897.664
-205.777
-8.67861
0.436973
37.0704
53.9021
47.1871
54.1393
53.1304
54.4437
55.0924
55.3299
55.2478
55.6736
55.7202
55.8766
55.6666
55.7594
55.3505
55.3961
55.0096
54.8617
54.2706
53.7611
53.0711
52.5193
51.8601
51.3834
50.7366
50.424
49.8106
49.7805
49.2367
49.2975
49.0577
49.02
48.807
49.5713
53.3375
61.8999
55.3343
54.9634
46.5307
51.7124
46.9683
52.557
44.5618
47.4695
43.2433
44.5692
42.9564
43.3782
42.3719
42.4328
41.9424
41.7319
41.4736
41.234
41.0153
40.8001
40.5609
40.2893
39.9998
39.7048
39.4083
39.1115
38.8147
38.518
38.2216
37.9262
37.6321
37.3392
37.0474
36.7564
36.4663
36.177
35.8884
35.6005
35.3135
35.0279
34.7441
34.4619
34.1808
33.9006
33.6212
33.3429
33.0661
32.7908
32.5166
32.243
31.9697
31.6969
31.4249
31.1541
30.8845
30.6161
30.3491
30.0837
29.8197
29.5571
29.2954
29.0342
28.7735
28.5133
28.254
27.9958
27.7385
27.4819
27.2256
26.9698
26.7144
26.4599
26.2064
25.9537
25.7016
25.4499
25.1986
24.9479
24.6981
24.4492
24.2011
23.9537
23.7066
23.46
23.2139
22.9684
22.7235
22.4793
22.2356
21.9923
21.7495
21.5074
21.2662
21.0257
20.786
20.5467
20.3077
20.069
19.8306
19.5928
19.3558
19.1199
18.885
18.6509
18.4173
18.1841
17.9513
17.7193
17.4883
17.2586
17.0303
16.8033
16.5774
16.3525
16.1283
15.9049
15.6822
15.4604
15.2396
15.0195
14.8002
14.5815
14.3634
14.1458
13.9288
13.7123
13.4965
13.2813
13.0667
12.8527
12.6392
12.4263
12.214
12.0023
11.7913
11.581
11.3713
11.1622
10.9537
10.7456
10.5379
10.3305
10.1235
9.91685
9.71069
9.50505
9.29994
9.09529
8.89101
8.68698
8.48307
8.27919
8.0753
7.87141
7.66756
7.46381
7.2602
7.05675
6.85347
6.65037
6.44748
6.24492
6.04284
5.84149
5.64112
5.44198
5.24423
5.04796
4.85316
4.6597
4.46744
4.27621
4.08592
3.89653
3.70809
3.52072
3.33455
3.14969
2.96616
2.78388
2.60263
2.42209
2.24197
2.06207
1.8824
1.70334
1.52554
1.3499
1.17734
1.00897
0.845681
0.688442
0.541432
0.402398
0.275202
0.164015
0.181647
0.186582
0.187199
0.192697
0.201419
0.204235
0.210249
0.22493
0.240748
0.248992
0.254598
0.259355
0.263383
0.266718
0.26941
0.271561
0.27329
0.274705
0.275887
0.276889
0.277741
0.278463
0.279067
0.279561
0.279957
0.280263
0.280487
0.280636
0.280717
0.280734
0.280694
0.280601
0.280459
0.280271
0.280042
0.279776
0.279477
0.279151
0.278803
0.278437
0.278061
0.277679
0.277297
0.276918
0.276547
0.276187
0.27584
0.275509
0.275195
0.274899
0.274622
0.274364
0.274125
0.273904
0.273701
0.273517
0.273351
0.273206
0.273079
0.272974
0.272892
0.272833
0.272799
0.27279
0.272807
0.27285
0.272921
0.273017
0.273139
0.273285
0.273455
0.273648
0.273861
0.274095
0.274348
0.274619
0.274906
0.275208
0.275523
0.27585
0.276188
0.276533
0.276883
0.277232
0.277577
0.277909
0.278219
0.278494
0.27872
0.27888
0.278958
0.278937
0.278807
0.278562
0.2782
0.277725
0.277143
0.276452
0.275638
0.274663
0.273457
0.271903
0.269837
0.267059
0.263409
0.258767
0.252731
0.244124
0.228559
0.216548
0.21508
0.214809
0.199252
0.190332
0.194156
0.192666
-1592.79
-1444.99
-1336.26
-1288.96
-1389.15
-1427.67
-1397.83
-1351.31
-1330.04
-1313.01
-1289.86
-1260.63
-1231.29
-1203.72
-1170.43
-1135.54
-1106.91
-1076.35
-1035.45
-1011.26
-1009.7
-984.684
-901.655
-762.875
-775.498
-730.194
-661.534
-510.684
-299.081
-137.745
-85.6804
23.6113
108.163
245.197
417.393
507.19
0.302847
0.314779
0.319923
0.338021
0.363013
0.371748
0.378265
0.390741
0.401104
0.408995
0.416153
0.422993
0.42927
0.434678
0.439166
0.442857
0.445949
0.448616
0.450977
0.453106
0.455044
0.456812
0.458422
0.459889
0.461225
0.462443
0.463554
0.464568
0.465492
0.466332
0.467092
0.46778
0.468398
0.468949
0.469436
0.469864
0.470236
0.470558
0.470834
0.47107
0.471272
0.471445
0.471595
0.471723
0.471833
0.471927
0.472006
0.472071
0.47212
0.472153
0.472168
0.472162
0.472134
0.47208
0.472
0.471893
0.471757
0.471592
0.4714
0.471182
0.470941
0.470678
0.470396
0.470097
0.469784
0.46946
0.469126
0.468783
0.468434
0.468079
0.467719
0.467356
0.46699
0.466624
0.466258
0.465894
0.465532
0.465175
0.464823
0.464477
0.464139
0.463807
0.463481
0.463158
0.462833
0.4625
0.462145
0.461754
0.461304
0.460771
0.460131
0.459359
0.458435
0.457352
0.456107
0.454713
0.453179
0.451515
0.44971
0.44772
0.445451
0.442728
0.439291
0.434848
0.429181
0.422423
0.414924
0.406867
0.397346
0.387833
0.385578
0.384529
0.348178
0.325624
0.327716
0.320039
235.386
20.547
-189.238
-413.609
-645.241
-875.952
-1102.04
-1322.25
-1536.34
-1744.36
-1946.2
-2142.27
-2333.34
-2519.79
-2701.77
-2879.82
-3054.23
-3224.94
-3392.04
-3555.77
-3716.12
-3872.59
-4025.35
-4174.32
-4319.19
-4460.42
-4597.57
-4730.25
-4857.97
-4980.47
-5098.67
-5210.64
-5316.64
-5418.24
-5514.25
-5603.37
-5685.67
-5766.46
-5836.39
-5622.1
-5118.8
-5227.45
-5591.73
-5182.6
-3897.94
-1083.56
-115.039
38.4786
63.192
40.0091
40.4229
46.7529
48.963
51.8049
52.8681
53.712
54.4606
54.8799
55.08
55.2661
55.3693
55.4067
55.35
55.2631
55.072
54.8469
54.5461
54.2256
53.83
53.4062
52.9257
52.4191
51.898
51.4082
50.9345
50.5254
50.1452
49.8718
49.6211
49.5249
49.52
49.5977
49.3552
48.6943
47.593
47.5813
46.6072
47.8554
47.7333
47.0728
45.5623
45.547
44.274
44.6481
43.9355
43.9466
43.4515
43.151
42.722
42.4137
42.0909
41.8047
41.535
41.2769
41.0282
40.7809
40.5238
40.2522
39.969
39.6795
39.3871
39.0933
38.7986
38.5034
38.2083
37.9141
37.621
37.3289
37.0377
36.7472
36.4576
36.1688
35.8805
35.5929
35.3063
35.0211
34.7377
34.4557
34.1747
33.8944
33.6151
33.337
33.0606
32.7855
32.5113
32.2376
31.9642
31.6915
31.4198
31.1492
30.8797
30.6115
30.3446
30.0792
29.8155
29.553
29.2912
29.0299
28.7691
28.5089
28.2498
27.9917
27.7346
27.4779
27.2216
26.9657
26.7105
26.4561
26.2027
25.9501
25.698
25.4462
25.1948
24.9441
24.6943
24.4455
24.1975
23.9501
23.703
23.4564
23.2104
22.965
22.7203
22.4761
22.2324
21.9891
21.7464
21.5043
21.2632
21.0228
20.7831
20.5438
20.3048
20.0659
19.8275
19.5897
19.353
19.1172
18.8824
18.6483
18.4147
18.1814
17.9485
17.7165
17.4855
17.2559
17.0278
16.8009
16.5751
16.3501
16.1259
15.9025
15.6799
15.4581
15.2373
15.0173
14.798
14.5794
14.3613
14.1437
13.9267
13.7103
13.4946
13.2794
13.0649
12.8509
12.6374
12.4245
12.2122
12.0005
11.7895
11.5792
11.3696
11.1606
10.9521
10.7441
10.5364
10.329
10.122
9.91539
9.70928
9.50372
9.29869
9.09413
8.88994
8.68597
8.48211
8.27826
8.07441
7.87056
7.66678
7.4631
7.25956
7.05618
6.85294
6.64986
6.44696
6.24438
6.04228
5.84093
5.6406
5.44153
5.24389
5.04775
4.85306
4.65971
4.46752
4.27634
4.08606
3.89667
3.70822
3.52086
3.33471
3.1499
2.96643
2.78422
2.60304
2.42259
2.24259
2.06287
1.88352
1.70497
1.52793
1.3534
1.18273
1.01731
0.858472
0.70535
0.566788
0.431379
0.45264
0.58493
0.731495
0.88374
1.04272
1.20762
1.37738
1.551
1.72762
1.90638
2.08647
2.26744
2.44912
2.63152
2.81473
2.99888
3.18405
3.37034
3.55777
3.74635
3.9361
4.12699
4.319
4.51211
4.70628
4.90145
5.09758
5.29456
5.49231
5.69071
5.88966
6.08907
6.28889
6.48907
6.68962
6.89058
7.09199
7.29392
7.49641
7.69947
7.90309
8.1072
8.3117
8.51645
8.72131
8.9262
9.13102
9.33578
9.54053
9.7454
9.95055
10.1562
10.3624
10.5695
10.7774
10.9862
11.1959
11.4064
11.6175
11.8292
12.0413
12.2537
12.4664
12.6795
12.8929
13.1068
13.3211
13.5362
13.7519
13.9685
14.1859
14.4041
14.6232
14.8431
15.0636
15.2846
15.5061
15.728
15.9504
16.1732
16.3966
16.6207
16.8458
17.072
17.2993
17.528
17.7578
17.9889
18.2209
18.4539
18.6877
18.922
19.157
19.3926
19.6288
19.8657
20.1033
20.3417
20.5808
20.8207
21.0612
21.3022
21.5438
21.7857
22.0279
22.2703
22.5131
22.7561
22.9996
23.2435
23.4882
23.7337
23.98
24.2271
24.475
24.7235
24.9726
25.2222
25.4723
25.7229
25.9739
26.2253
26.4773
26.73
26.9834
27.2378
27.4931
27.7493
28.0062
28.2638
28.5222
28.7813
29.0415
29.3027
29.565
29.8284
30.0927
30.358
30.6242
30.8914
31.1596
31.429
31.6996
31.9713
32.244
32.5177
32.7922
33.0675
33.3439
33.6213
33.9
34.18
34.4609
34.7428
35.0254
35.3089
35.5935
35.8792
36.166
36.454
36.7428
37.0323
37.3224
37.6132
37.9047
38.1968
38.4896
38.7827
39.0757
39.3679
39.6585
39.9459
40.227
40.4968
40.7523
40.9978
41.2445
41.5008
41.769
42.054
42.375
42.6817
43.108
43.41
43.9013
43.902
44.5964
44.2393
45.4842
45.4894
47.0039
47.6534
47.7653
46.5397
47.5077
47.4978
48.5977
49.2593
49.5026
49.4313
49.4342
49.5139
49.7491
50.0141
50.3846
50.7802
51.2423
51.7198
52.2314
52.7274
53.1987
53.6092
53.9934
54.2973
54.5821
54.7838
54.9554
55.018
55.0524
54.9926
54.8633
54.6639
54.4704
53.9778
53.1273
52.2308
50.9444
48.1427
46.2235
39.0687
41.744
58.4039
24.6284
-144.743
-1358.66
-4077.78
-5310.67
-5648.65
-5162.11
-4994.43
-5612.33
-5815.72
-5726.98
-5655.45
-5583.28
-5505.02
-5422.67
-5337.82
-5250.56
-5158.68
-5062.73
-4964.38
-4863.12
-4758.79
-4651.74
-4542.36
-4430.82
-4316.88
-4200.82
-4082.79
-3963.18
-3842.18
-3719.79
-3596.13
-3471.15
-3344.97
-3217.66
-3089.13
-2959.32
-2828.49
-2696.67
-2563.81
-2430.36
-2297.16
-2165.75
-2038.66
-1919.78
-1815.12
-1730.01
-1654.54
-1590.41
-1517.14
-1482.57
-1496.62
-1502.22
-1476.28
-1439.26
-1406.79
-1376.78
-1344.82
-1310.13
-1275.56
-1241.11
-1205.1
-1169.24
-1135.91
-1102.93
-1069.28
-1042.29
-1021.82
-988.333
-926.613
-857.161
-823.549
-793.049
-723.48
-607.034
-476.425
-367.198
-291.663
-221.285
-127.861
-11.3656
110.542
-107.872
-308.363
-518.06
-733.441
-948.793
-1161.85
-1371.56
-1577.41
-1779.03
-1976.05
-2168.5
-2356.56
-2540.39
-2720.12
-2896.07
-3068.43
-3237.25
-3402.6
-3564.56
-3723.1
-3877.94
-4029.15
-4176.62
-4320.12
-4459.74
-4595.14
-4725.98
-4851.87
-4972.47
-5087.83
-5197.22
-5300.22
-5397.14
-5487.14
-5570.05
-5648.32
-5702.24
-5485.6
-5346.63
-5456.92
-5481.43
-5607.46
-4449.61
-1434.51
-121.957
23.8871
42.9771
49.4916
44.5806
44.9735
47.6016
49.5037
51.4307
52.5163
53.3784
54.0246
54.4542
54.7217
54.9138
55.0168
55.0521
55.0074
54.9146
54.7427
54.5327
54.2596
53.9533
53.5928
53.199
52.765
52.3135
51.852
51.4074
50.9779
50.593
50.2368
49.9491
49.692
49.5173
49.372
49.2281
48.9082
48.4263
47.842
47.5724
47.1892
47.291
46.9822
46.5844
45.8357
45.4079
44.8006
44.556
44.1333
43.8832
43.4905
43.1661
42.7878
42.4692
42.1485
41.8542
41.5718
41.3002
41.0357
40.7729
40.5054
40.2298
39.947
39.6593
39.3689
39.0767
38.7832
38.4891
38.1951
37.9019
37.6096
37.3181
37.0273
36.7373
36.4481
36.1597
35.8718
35.5846
35.2985
35.0139
34.7308
34.4489
34.1678
33.8875
33.6083
33.3306
33.0544
32.7794
32.5051
32.2313
31.9579
31.6854
31.414
31.1436
30.8744
30.6063
30.3395
30.0743
29.8107
29.5482
29.2863
29.0249
28.7639
28.5039
28.2449
27.987
27.7299
27.4731
27.2168
26.9609
26.7058
26.4517
26.1985
25.9458
25.6935
25.4416
25.1902
24.9395
24.6898
24.4411
24.1931
23.9457
23.6986
23.4521
23.2061
22.9609
22.7163
22.4722
22.2286
21.9853
21.7426
21.5006
21.2595
21.0193
20.7796
20.5402
20.301
20.0621
19.8237
19.5861
19.3495
19.114
18.8793
18.6452
18.4114
18.1781
17.9452
17.7132
17.4823
17.2528
17.0248
16.7979
16.5722
16.3472
16.123
15.8996
15.677
15.4553
15.2345
15.0145
14.7953
14.5767
14.3587
14.1411
13.9242
13.7078
13.4921
13.2771
13.0626
12.8486
12.6352
12.4222
12.2099
11.9981
11.7871
11.5768
11.3672
11.1583
10.9499
10.7419
10.5342
10.3268
10.1198
9.91326
9.7072
9.5017
9.29674
9.09226
8.88813
8.6842
8.48037
8.27656
8.07274
7.86895
7.66523
7.46163
7.25818
7.05486
6.85167
6.64859
6.44569
6.24308
6.04098
5.83966
5.63938
5.44039
5.24285
5.04682
4.85223
4.65895
4.4668
4.27563
4.08535
3.89595
3.70751
3.52017
3.33407
3.14933
2.96594
2.78379
2.60263
2.42214
2.24201
2.06211
1.88258
1.70387
1.52681
1.35246
1.18191
1.01779
0.862957
0.71792
0.580487
0.444861
0.448143
0.477592
0.522154
0.532764
0.541905
0.55259
0.562259
0.571038
0.579823
0.588913
0.597581
0.605079
0.611258
0.616337
0.620638
0.624425
0.627862
0.631035
0.633984
0.636729
0.639281
0.641654
0.643866
0.645932
0.647868
0.649686
0.651394
0.652998
0.654503
0.655916
0.657239
0.658476
0.659628
0.660699
0.661693
0.662615
0.663471
0.664267
0.665006
0.665696
0.666339
0.66694
0.667499
0.668017
0.668494
0.66893
0.66932
0.669664
0.669955
0.67019
0.670365
0.670476
0.670519
0.670493
0.670396
0.670227
0.669986
0.669677
0.6693
0.668861
0.668361
0.667804
0.667196
0.666539
0.665836
0.665092
0.664307
0.663487
0.662633
0.661748
0.660836
0.659901
0.658947
0.657976
0.656992
0.656
0.655004
0.654009
0.653016
0.652029
0.651049
0.650077
0.649109
0.648138
0.64715
0.646125
0.645035
0.643846
0.642521
0.641023
0.639324
0.637411
0.635284
0.632964
0.630479
0.627853
0.625094
0.622164
0.618951
0.615227
0.610629
0.604661
0.597078
0.588183
0.578955
0.570278
0.562059
0.553474
0.544526
0.536578
0.4993
0.453975
0.464292
0.595272
0.735949
0.885185
1.04329
1.20818
1.37766
1.55099
1.72745
1.90616
2.08613
2.26694
2.44848
2.6308
2.81399
2.99814
3.18336
3.3697
3.55719
3.74584
3.93564
4.12657
4.31862
4.51174
4.70592
4.90109
5.09719
5.29413
5.49183
5.69016
5.88903
6.08835
6.28807
6.48815
6.6886
6.88945
7.09077
7.29261
7.49503
7.69802
7.90158
8.10562
8.31004
8.5147
8.71948
8.92427
9.129
9.33367
9.53834
9.74315
9.94826
10.1539
10.3601
10.5672
10.7751
10.9839
11.1936
11.4041
11.6151
11.8267
12.0388
12.2511
12.4638
12.6768
12.8902
13.104
13.3184
13.5334
13.7492
13.9658
14.1832
14.4015
14.6205
14.8404
15.0608
15.2818
15.5032
15.725
15.9473
16.17
16.3934
16.6176
16.8427
17.0689
17.2963
17.5249
17.7548
17.9858
18.2178
18.4507
18.6844
18.9187
19.1536
19.3891
19.6252
19.8621
20.0997
20.3381
20.5772
20.817
21.0575
21.2984
21.5399
21.7817
22.0238
22.2662
22.5089
22.7519
22.9953
23.2393
23.484
23.7294
23.9757
24.2228
24.4706
24.719
24.9681
25.2176
25.4677
25.7182
25.9691
26.2205
26.4725
26.7251
26.9786
27.233
27.4883
27.7444
28.0013
28.2588
28.5171
28.7762
29.0363
29.2975
29.5598
29.8232
30.0874
30.3526
30.6187
30.8858
31.1539
31.4232
31.6936
31.9652
32.2379
32.5114
32.7858
33.0611
33.3373
33.6147
33.8933
34.173
34.4537
34.7352
35.0176
35.3008
35.5851
35.8705
36.1571
36.4446
36.733
37.0219
37.3115
37.6016
37.8923
38.1835
38.4753
38.7672
39.0587
39.3492
39.6379
39.9235
40.2043
40.4781
40.7439
41.005
41.2675
41.5372
41.8178
42.1107
42.4298
42.747
43.1232
43.4473
43.8385
44.0899
44.5074
44.751
45.3488
45.7687
46.514
46.9059
47.2129
47.1119
47.4917
47.7541
48.3326
48.8127
49.1309
49.2742
49.4151
49.579
49.8242
50.1021
50.4479
50.8209
51.2387
51.6712
52.1217
52.5614
52.9839
53.3637
53.7104
53.9992
54.2547
54.4426
54.593
54.6612
54.6814
54.6204
54.4898
54.2709
53.9788
53.4942
52.7707
51.834
50.6299
48.6571
46.8486
43.9055
43.7004
46.8491
39.9787
20.4059
-181.834
-1812.94
-4715.64
-5754.95
-5274.2
-5410.26
-5219.4
-5566.93
-5676.25
-5617.51
-5545.87
-5473.47
-5396.27
-5315.04
-5230
-5140.45
-5047.04
-4950.3
-4850.29
-4747.11
-4641.04
-4532.38
-4421.3
-4307.83
-4192.2
-4074.61
-3955.31
-3834.44
-3712.11
-3588.54
-3463.7
-3337.6
-3210.31
-3081.96
-2952.73
-2822.85
-2692.33
-2561.17
-2429.77
-2298.74
-2169.16
-2042.6
-1921.29
-1807.94
-1702.87
-1658.74
-1629.46
-1622.02
-1611.71
-1585.07
-1550.75
-1516.26
-1481.65
-1445.7
-1408.53
-1371.53
-1334.71
-1297.48
-1260.77
-1225.71
-1191.51
-1157.81
-1127.22
-1098.7
-1062.31
-1011.71
-958.359
-919.793
-883.35
-819.184
-728.616
-633.86
-549.029
-478.764
-410.785
-321.722
-218.267
0.602445
-410.894
-609.834
-813.852
-1017.95
-1220.9
-1421.9
-1620.46
-1816.14
-2008.52
-2197.35
-2382.46
-2563.75
-2741.27
-2915.17
-3085.56
-3252.52
-3416.13
-3576.43
-3733.37
-3886.75
-4036.57
-4182.73
-4324.99
-4463.3
-4597.33
-4726.74
-4851.14
-4970.1
-5083.4
-5190.38
-5290.39
-5383.17
-5467.64
-5540.8
-5590.2
-5552.1
-5566.8
-5443.42
-5134.64
-5724.2
-5032.52
-2124.24
-203.989
36.8921
42.7834
42.9483
46.7128
45.945
47.2209
48.893
50.1771
51.5762
52.4947
53.2467
53.8151
54.2109
54.4737
54.6537
54.7471
54.773
54.7274
54.6316
54.4694
54.2675
54.0119
53.7217
53.387
53.0221
52.6262
52.2155
51.7967
51.3879
50.9908
50.6248
50.2812
49.9846
49.7097
49.4825
49.2624
49.036
48.7163
48.3312
47.8997
47.6125
47.2499
47.0966
46.7212
46.366
45.8217
45.4122
44.9143
44.5932
44.1918
43.8906
43.5173
43.1893
42.8323
42.512
42.1931
41.8926
41.6018
41.3199
41.0441
40.7704
40.4947
40.2147
39.9303
39.6426
39.3527
39.061
38.7683
38.475
38.182
37.8895
37.5977
37.3066
37.0162
36.7266
36.4378
36.1498
35.8623
35.5756
35.29
35.0059
34.7231
34.4412
34.16
33.8798
33.6009
33.3235
33.0475
32.7724
32.498
32.224
31.9508
31.6786
31.4075
31.1374
30.8683
30.6004
30.3338
30.0688
29.8051
29.5425
29.2805
29.019
28.7581
28.4982
28.2394
27.9815
27.7243
27.4675
27.2111
26.9554
26.7005
26.4466
26.1934
25.9407
25.6883
25.4362
25.1847
24.9341
24.6845
24.4358
24.1878
23.9403
23.6933
23.4469
23.2011
22.956
22.7116
22.4676
22.2239
21.9807
21.738
21.4962
21.2552
21.015
20.7752
20.5358
20.2965
20.0575
19.8192
19.5818
19.3455
19.1101
18.8755
18.6413
18.4075
18.1741
17.9412
17.7093
17.4786
17.2492
17.0213
16.7945
16.5687
16.3437
16.1195
15.8961
15.6735
15.4518
15.2311
15.0112
14.792
14.5735
14.3554
14.138
13.9211
13.7048
13.4892
13.2742
13.0597
12.8458
12.6323
12.4193
12.2069
11.9951
11.7841
11.5738
11.3643
11.1553
10.947
10.739
10.5313
10.324
10.117
9.91043
9.70442
9.49898
9.29409
9.08966
8.88556
8.68166
8.47785
8.27406
8.07029
7.86656
7.66293
7.45943
7.25606
7.0528
6.84964
6.64658
6.44367
6.24107
6.03899
5.8377
5.6375
5.4386
5.24117
5.04522
4.8507
4.65746
4.46533
4.27415
4.08386
3.89445
3.70603
3.51873
3.3327
3.14804
2.96474
2.78267
2.60151
2.42092
2.24072
2.06073
1.88101
1.70192
1.52435
1.34884
1.17544
1.00688
0.838321
0.727188
0.570613
0.711698
0.874176
1.03706
1.20523
1.37614
1.55009
1.72703
1.90605
2.08587
2.26627
2.44737
2.62936
2.81237
2.99649
3.18177
3.36825
3.55591
3.74474
3.93471
4.12577
4.31791
4.51107
4.70525
4.90037
5.0964
5.29324
5.49082
5.68902
5.88776
6.08694
6.28653
6.48648
6.68682
6.88757
7.0888
7.29056
7.4929
7.69582
7.8993
8.10325
8.30758
8.51215
8.71684
8.92153
9.12617
9.33077
9.53539
9.74017
9.94528
10.1509
10.3572
10.5643
10.7722
10.981
11.1907
11.4011
11.6121
11.8236
12.0356
12.2479
12.4605
12.6735
12.8868
13.1007
13.3151
13.5301
13.7459
13.9625
14.18
14.3983
14.6173
14.8371
15.0574
15.2783
15.4996
15.7214
15.9436
16.1663
16.3897
16.6139
16.8391
17.0653
17.2927
17.5214
17.7512
17.9822
18.2141
18.4469
18.6804
18.9146
19.1494
19.3849
19.621
19.8579
20.0955
20.3339
20.5729
20.8127
21.053
21.2938
21.5351
21.7768
22.0188
22.2612
22.5039
22.7469
22.9903
23.2343
23.479
23.7244
23.9706
24.2176
24.4653
24.7137
24.9627
25.2121
25.4621
25.7126
25.9635
26.2149
26.4668
26.7195
26.973
27.2274
27.4827
27.7388
27.9956
28.253
28.5113
28.7704
29.0305
29.2917
29.5539
29.8172
30.0814
30.3465
30.6125
30.8794
31.1474
31.4166
31.6869
31.9584
32.2309
32.5044
32.7787
33.0539
33.3301
33.6073
33.8858
34.1653
34.4457
34.7269
35.0089
35.2918
35.5759
35.8611
36.1474
36.4345
36.7224
37.0109
37.2999
37.5895
37.8796
38.1702
38.4613
38.7524
39.043
39.3326
39.6207
39.9065
40.189
40.4672
40.7412
41.0131
41.2871
41.567
41.8558
42.1547
42.4721
42.7909
43.146
43.4731
43.8446
44.1453
44.5427
44.8612
45.3527
45.7563
46.2967
46.6471
47.0198
47.1708
47.5301
47.8123
48.2387
48.6207
48.9364
49.1598
49.3737
49.5922
49.8564
50.1435
50.4765
50.8312
51.2168
51.6134
52.0203
52.4181
52.801
53.1507
53.4699
53.7419
53.9787
54.1583
54.2976
54.368
54.387
54.3327
54.208
53.9941
53.6969
53.2489
52.6138
51.7938
50.7791
49.3151
48.0346
46.0613
44.7899
44.7953
41.2903
40.776
30.6769
-297.57
-2620.1
-5269.36
-5748.4
-5145.83
-5464.85
-5528.93
-5547.02
-5561.44
-5513.08
-5447.4
-5374.66
-5296.84
-5214.32
-5126.97
-5035.42
-4940.06
-4841.12
-4738.81
-4633.43
-4525.26
-4414.51
-4301.3
-4185.89
-4068.48
-3949.27
-3828.33
-3705.87
-3582.1
-3457.01
-3330.64
-3203.14
-3074.8
-2945.88
-2816.5
-2686.63
-2556.27
-2425.64
-2295.11
-2165.28
-2036.84
-1910.46
-1785.41
0.621773
0.66728
0.684947
0.701111
0.713934
0.724527
0.734557
0.745338
0.757271
0.768825
0.778548
0.786317
0.792588
0.797904
0.802651
0.807042
0.811163
0.81504
0.818682
0.822097
0.825299
0.828308
0.831147
0.833834
0.836384
0.838807
0.841107
0.843292
0.845366
0.847331
0.849192
0.850948
0.852604
0.854163
0.855631
0.857014
0.858317
0.859546
0.860705
0.861798
0.862828
0.863797
0.864703
0.865545
0.866321
0.867027
0.867658
0.868207
0.868669
0.869038
0.869309
0.869478
0.86954
0.869493
0.869336
0.869068
0.868692
0.868211
0.867629
0.866948
0.866173
0.86531
0.864363
0.863337
0.862234
0.861059
0.859817
0.858511
0.857147
0.855729
0.854263
0.852755
0.851211
0.849638
0.848041
0.84643
0.84481
0.843188
0.841571
0.839964
0.83837
0.836789
0.835216
0.833635
0.832021
0.830339
0.828542
0.826575
0.824388
0.821937
0.819199
0.816181
0.812918
0.809464
0.805877
0.802192
0.798397
0.794393
0.78993
0.784415
0.777105
0.767592
0.756158
0.744477
0.734429
0.726411
0.721154
0.719541
0.713079
-1764.39
-1750.62
-1733.79
-1707.92
-1675.96
-1641.69
-1605.87
-1568.53
-1530.5
-1492.52