/*--------------------------------*- C++ -*----------------------------------*\
| =========                 |                                                 |
| \\      /  F ield         | OpenFOAM: The Open Source CFD Toolbox           |
|  \\    /   O peration     | Version:  2.2.1                                 |
|   \\  /    A nd           | Web:      www.OpenFOAM.org                      |
|    \\/     M anipulation  |                                                 |
\*---------------------------------------------------------------------------*/
FoamFile
{
    version     2.0;
    format      ascii;
    class       surfaceScalarField;
    location    "2e-05";
    object      phi;
}
// * * * * * * * * * * * * * * * * * * * * * * * * * * * * * * * * * * * * * //

dimensions      [0 3 -1 0 0 0 0];

internalField   nonuniform List<scalar> 
44563
(
-1.35799e-13
-8.28118e-14
-8.59244e-14
-4.98741e-14
-5.51985e-14
-3.07259e-14
-3.53405e-14
-1.9858e-14
-2.2889e-14
-1.24516e-14
-1.52873e-14
-7.6017e-15
-1.05606e-14
-4.72668e-15
-7.6015e-15
-2.95908e-15
-5.70769e-15
-1.89381e-15
-4.43208e-15
-1.27562e-15
-3.52138e-15
-9.10695e-16
-2.71501e-15
-8.06373e-16
-2.02232e-15
-6.92685e-16
-1.47998e-15
-5.42337e-16
-1.02138e-15
-4.58603e-16
-5.80757e-16
-4.40622e-16
-2.74629e-16
-3.06128e-16
-6.45153e-17
-2.10114e-16
9.77855e-17
-1.623e-16
1.59182e-16
-6.13954e-17
1.09362e-16
4.98192e-17
-3.25823e-17
1.41943e-16
-1.45474e-16
1.12892e-16
-3.99368e-16
2.53893e-16
-7.43317e-16
3.4395e-16
-1.11899e-15
3.75677e-16
-1.71521e-15
5.96221e-16
-2.31782e-15
6.02602e-16
-2.96844e-15
6.50627e-16
-3.66243e-15
6.93988e-16
-4.38508e-15
7.22642e-16
-5.45827e-15
1.0732e-15
-6.531e-15
1.07273e-15
-7.58868e-15
1.05768e-15
-9.06916e-15
1.48048e-15
-1.06111e-14
1.54196e-15
-1.25627e-14
1.9516e-15
-1.46676e-14
2.10492e-15
-1.73841e-14
2.71641e-15
-2.17804e-14
4.39632e-15
-2.73413e-14
5.56095e-15
-3.77219e-14
1.03805e-14
-5.3742e-14
1.60202e-14
-7.41025e-14
2.03605e-14
-9.78655e-14
2.3763e-14
-1.31265e-13
3.33992e-14
-1.81954e-13
5.06892e-14
-2.32274e-13
5.03205e-14
-2.503e-13
1.80255e-14
-1.41748e-13
-1.08552e-13
-2.29053e-13
8.73049e-14
-7.61194e-14
-1.52934e-13
-8.04759e-14
4.35652e-15
-9.2062e-14
1.15861e-14
-5.52033e-14
-3.68587e-14
-5.86972e-14
3.49391e-15
-4.31939e-14
-1.55034e-14
-3.40277e-14
-9.16615e-15
-2.70322e-14
-6.99555e-15
-2.01481e-14
-6.88412e-15
-1.289e-14
-7.25804e-15
-8.71416e-15
-4.17586e-15
-5.13222e-15
-3.58194e-15
-3.66815e-15
-1.46407e-15
-2.01628e-15
-1.65186e-15
-2.74468e-15
7.28392e-16
-2.41922e-15
-3.25455e-16
-4.17031e-15
1.75109e-15
-5.08927e-15
9.1895e-16
-7.15851e-15
2.06924e-15
-8.42445e-15
1.26595e-15
-9.89346e-15
1.46901e-15
-1.01579e-14
2.644e-16
-1.00874e-14
-7.04555e-17
-8.76667e-15
-1.32073e-15
-7.45904e-15
-1.30764e-15
-4.73101e-15
-2.72802e-15
-2.83208e-15
-1.89894e-15
7.78036e-16
-3.61011e-15
2.22456e-15
-1.44652e-15
5.47645e-15
-3.25189e-15
6.17412e-15
-6.97677e-16
7.61113e-15
-1.43701e-15
5.22529e-15
2.38584e-15
5.49144e-15
-2.66155e-16
1.92888e-15
3.56256e-15
2.15675e-15
-2.27864e-16
-1.38449e-14
1.60017e-14
-1.14963e-14
-2.34862e-15
-2.38316e-14
1.23353e-14
-7.96564e-15
-1.58659e-14
-1.39199e-14
5.95427e-15
-7.63938e-15
-6.28054e-15
-1.41775e-14
6.53815e-15
-8.66391e-15
-5.5136e-15
-1.47947e-14
6.13081e-15
-9.18804e-15
-5.6067e-15
-1.39984e-14
4.81038e-15
-9.73962e-15
-4.2588e-15
-1.12765e-14
1.53684e-15
-7.67378e-15
-3.60267e-15
-6.91144e-15
-7.62341e-16
-4.6458e-15
-2.26565e-15
-3.08467e-15
-1.56113e-15
-1.62161e-15
-1.46306e-15
-4.22324e-16
-1.19929e-15
4.35563e-16
-8.57886e-16
9.38316e-16
-5.02752e-16
1.19236e-15
-2.54041e-16
1.33649e-15
-1.44127e-16
1.43842e-15
-1.01934e-16
1.5172e-15
-7.87738e-17
1.58091e-15
-6.37132e-17
1.63419e-15
-5.3276e-17
1.67983e-15
-4.56397e-17
1.71956e-15
-3.97343e-17
1.75454e-15
-3.4977e-17
1.78568e-15
-3.11398e-17
1.81379e-15
-2.81119e-17
1.83951e-15
-2.57242e-17
1.86328e-15
-2.37652e-17
1.88536e-15
-2.20844e-17
1.90599e-15
-2.06322e-17
1.92538e-15
-1.93921e-17
1.94369e-15
-1.8313e-17
1.961e-15
-1.73179e-17
1.97738e-15
-1.63752e-17
1.99292e-15
-1.55361e-17
2.00779e-15
-1.48734e-17
2.02219e-15
-1.43942e-17
2.0362e-15
-1.40134e-17
2.04981e-15
-1.36136e-17
2.06295e-15
-1.31353e-17
2.07557e-15
-1.26232e-17
2.08777e-15
-1.21948e-17
2.0997e-15
-1.1929e-17
2.11149e-15
-1.17882e-17
2.12313e-15
-1.16404e-17
2.13451e-15
-1.13788e-17
2.14552e-15
-1.1008e-17
2.15614e-15
-1.0622e-17
2.16644e-15
-1.0303e-17
2.1765e-15
-1.00564e-17
2.18634e-15
-9.83295e-18
2.19594e-15
-9.60616e-18
2.20535e-15
-9.40342e-18
2.21462e-15
-9.27188e-18
2.22383e-15
-9.21435e-18
2.23301e-15
-9.17517e-18
2.24209e-15
-9.07968e-18
2.25098e-15
-8.89326e-18
2.25963e-15
-8.64761e-18
2.26804e-15
-8.41407e-18
2.2763e-15
-8.25394e-18
2.28448e-15
-8.17444e-18
2.2926e-15
-8.12636e-18
2.30064e-15
-8.03984e-18
2.30852e-15
-7.8777e-18
2.31619e-15
-7.66244e-18
2.32365e-15
-7.46027e-18
2.33099e-15
-7.32906e-18
2.33826e-15
-7.27263e-18
2.3455e-15
-7.2375e-18
2.35266e-15
-7.15751e-18
2.35967e-15
-7.00721e-18
2.36648e-15
-6.81962e-18
2.37314e-15
-6.65676e-18
2.3797e-15
-6.56024e-18
2.38622e-15
-6.52131e-18
2.39271e-15
-6.49132e-18
2.39914e-15
-6.42348e-18
2.40544e-15
-6.30637e-18
2.41161e-15
-6.16697e-18
2.41765e-15
-6.04366e-18
2.42361e-15
-5.95558e-18
2.4295e-15
-5.89248e-18
2.43533e-15
-5.82381e-18
2.44105e-15
-5.72657e-18
2.44666e-15
-5.6009e-18
2.45213e-15
-5.47274e-18
2.4575e-15
-5.37328e-18
2.46282e-15
-5.32003e-18
2.46813e-15
-5.30547e-18
2.47342e-15
-5.29816e-18
2.47868e-15
-5.26008e-18
2.48385e-15
-5.16774e-18
2.48887e-15
-5.0254e-18
2.49374e-15
-4.86419e-18
2.49847e-15
-4.72654e-18
2.50311e-15
-4.64405e-18
2.50773e-15
-4.61937e-18
2.51236e-15
-4.62385e-18
2.51697e-15
-4.61192e-18
2.52152e-15
-4.54652e-18
2.52594e-15
-4.41879e-18
2.53019e-15
-4.25201e-18
2.53428e-15
-4.08953e-18
2.53825e-15
-3.97147e-18
2.54216e-15
-3.91483e-18
2.54607e-15
-3.90703e-18
2.54999e-15
-3.91618e-18
2.5539e-15
-3.90761e-18
2.55776e-15
-3.86173e-18
2.56154e-15
-3.78175e-18
2.56522e-15
-3.68599e-18
2.56882e-15
-3.59721e-18
2.57235e-15
-3.5283e-18
2.57583e-15
-3.4777e-18
2.57926e-15
-3.43386e-18
2.58265e-15
-3.38278e-18
2.58596e-15
-3.31423e-18
2.58919e-15
-3.22739e-18
2.59231e-15
-3.12843e-18
2.59534e-15
-3.02505e-18
2.59826e-15
-2.92318e-18
2.60108e-15
-2.82491e-18
2.60381e-15
-2.72834e-18
2.60644e-15
-2.62865e-18
2.60896e-15
-2.52204e-18
2.61137e-15
-2.40748e-18
2.61366e-15
-2.28711e-18
2.61582e-15
-2.16395e-18
2.61786e-15
-2.04195e-18
2.61979e-15
-1.9248e-18
2.6216e-15
-1.81427e-18
2.62331e-15
-1.70849e-18
2.62491e-15
-1.6025e-18
2.6264e-15
-1.48996e-18
2.62777e-15
-1.36485e-18
2.62899e-15
-1.22348e-18
2.63006e-15
-1.06647e-18
2.63096e-15
-9.00648e-19
2.63169e-15
-7.35258e-19
2.63228e-15
-5.80088e-19
2.63272e-15
-4.41006e-19
2.63304e-15
-3.174e-19
2.63324e-15
-2.04096e-19
2.63333e-15
-9.08525e-20
2.63329e-15
3.35076e-20
2.63311e-15
1.76871e-19
2.63277e-15
3.40793e-19
2.63225e-15
5.21277e-19
2.63154e-15
7.09648e-19
2.63064e-15
9.0052e-19
2.62955e-15
1.08783e-18
2.62828e-15
1.27253e-18
2.62682e-15
1.46173e-18
2.62515e-15
1.66692e-18
2.62325e-15
1.89908e-18
2.62108e-15
2.16571e-18
2.61861e-15
2.467e-18
2.61582e-15
2.7933e-18
2.61269e-15
3.12808e-18
2.60924e-15
3.45256e-18
2.60549e-15
3.75044e-18
2.60148e-15
4.01132e-18
2.59725e-15
4.2325e-18
2.59282e-15
4.42035e-18
2.58824e-15
4.58868e-18
2.58348e-15
4.75276e-18
2.57856e-15
4.9247e-18
2.57345e-15
5.10829e-18
2.56815e-15
5.29201e-18
2.56271e-15
5.44303e-18
2.5572e-15
5.50934e-18
2.55177e-15
5.43139e-18
2.5466e-15
5.17395e-18
2.54182e-15
4.77607e-18
2.53741e-15
4.41264e-18
2.53297e-15
4.43633e-18
2.52763e-15
5.34724e-18
2.51998e-15
7.65034e-18
2.50828e-15
1.16983e-17
2.49071e-15
1.75666e-17
2.46567e-15
2.50396e-17
2.43054e-15
3.51321e-17
2.3778e-15
5.27483e-17
2.30337e-15
7.44303e-17
2.20928e-15
9.4082e-17
2.115e-15
9.42813e-17
2.04109e-15
7.39145e-17
1.97795e-15
6.31419e-17
1.90357e-15
7.43816e-17
1.7971e-15
1.06464e-16
1.47068e-16
-1.79957e-15
1.37011e-16
-1.90119e-15
1.01613e-16
-1.98266e-15
8.14732e-17
-2.0635e-15
8.08436e-17
-2.15645e-15
9.29457e-17
-2.247e-15
9.05578e-17
-2.32409e-15
7.70881e-17
-2.38584e-15
6.17529e-17
-2.43385e-15
4.80124e-17
-2.47004e-15
3.61828e-17
-2.49598e-15
2.5942e-17
-2.51359e-15
1.76169e-17
-2.52497e-15
1.13743e-17
-2.53246e-15
7.49086e-18
-2.53821e-15
5.75595e-18
-2.54373e-15
5.52139e-18
-2.54972e-15
5.9934e-18
-2.55625e-15
6.52481e-18
-2.56298e-15
6.73447e-18
-2.56948e-15
6.49727e-18
-2.57535e-15
5.8688e-18
-2.58035e-15
5.00071e-18
-2.58441e-15
4.06961e-18
-2.58764e-15
3.22856e-18
-2.59022e-15
2.58205e-18
-2.5924e-15
2.17695e-18
-2.59441e-15
2.01231e-18
-2.59646e-15
2.04872e-18
-2.59868e-15
2.22756e-18
-2.60116e-15
2.48317e-18
-2.60392e-15
2.75718e-18
-2.60692e-15
3.00207e-18
-2.61011e-15
3.18601e-18
-2.6134e-15
3.29098e-18
-2.61671e-15
3.3127e-18
-2.61997e-15
3.25626e-18
-2.6231e-15
3.13192e-18
-2.62605e-15
2.9508e-18
-2.62878e-15
2.72463e-18
-2.63124e-15
2.4631e-18
-2.63341e-15
2.17496e-18
-2.63528e-15
1.86679e-18
-2.63682e-15
1.54362e-18
-2.63803e-15
1.21045e-18
-2.63891e-15
8.74726e-19
-2.63945e-15
5.44666e-19
-2.63968e-15
2.2801e-19
-2.63961e-15
-6.73245e-20
-2.63928e-15
-3.30542e-19
-2.63873e-15
-5.5711e-19
-2.63798e-15
-7.44767e-19
-2.63709e-15
-8.95076e-19
-2.63607e-15
-1.01527e-18
-2.63496e-15
-1.11461e-18
-2.63375e-15
-1.20489e-18
-2.63245e-15
-1.29771e-18
-2.63105e-15
-1.40293e-18
-2.62952e-15
-1.52693e-18
-2.62785e-15
-1.67117e-18
-2.62602e-15
-1.83216e-18
-2.62401e-15
-2.0036e-18
-2.62183e-15
-2.17626e-18
-2.61949e-15
-2.34127e-18
-2.617e-15
-2.49083e-18
-2.61438e-15
-2.6199e-18
-2.61166e-15
-2.72631e-18
-2.60885e-15
-2.81159e-18
-2.60597e-15
-2.87988e-18
-2.60303e-15
-2.93592e-18
-2.60004e-15
-2.98594e-18
-2.597e-15
-3.03652e-18
-2.59391e-15
-3.09258e-18
-2.59075e-15
-3.15778e-18
-2.58752e-15
-3.23375e-18
-2.58419e-15
-3.32304e-18
-2.58077e-15
-3.42476e-18
-2.57724e-15
-3.5345e-18
-2.57359e-15
-3.64649e-18
-2.56984e-15
-3.75353e-18
-2.56599e-15
-3.84807e-18
-2.56207e-15
-3.92328e-18
-2.55809e-15
-3.975e-18
-2.55409e-15
-4.00428e-18
-2.55007e-15
-4.01593e-18
-2.54606e-15
-4.01857e-18
-2.54203e-15
-4.02313e-18
-2.53799e-15
-4.04082e-18
-2.53391e-15
-4.08022e-18
-2.52976e-15
-4.14551e-18
-2.52553e-15
-4.23617e-18
-2.52118e-15
-4.34656e-18
-2.51671e-15
-4.46781e-18
-2.51212e-15
-4.59064e-18
-2.50741e-15
-4.70443e-18
-2.50261e-15
-4.80324e-18
-2.49773e-15
-4.88433e-18
-2.49278e-15
-4.94931e-18
-2.48777e-15
-5.00368e-18
-2.48272e-15
-5.05561e-18
-2.47761e-15
-5.11363e-18
-2.47242e-15
-5.18419e-18
-2.46715e-15
-5.27061e-18
-2.46178e-15
-5.37252e-18
-2.45629e-15
-5.48715e-18
-2.45068e-15
-5.6094e-18
-2.44495e-15
-5.73351e-18
-2.43909e-15
-5.8535e-18
-2.43313e-15
-5.96331e-18
-2.42707e-15
-6.05743e-18
-2.42093e-15
-6.13238e-18
-2.41474e-15
-6.18816e-18
-2.40851e-15
-6.23135e-18
-2.40224e-15
-6.27206e-18
-2.39592e-15
-6.32354e-18
-2.38952e-15
-6.39702e-18
-2.38302e-15
-6.4979e-18
-2.3764e-15
-6.62412e-18
-2.36963e-15
-6.76689e-18
-2.36272e-15
-6.91447e-18
-2.35566e-15
-7.05648e-18
-2.34848e-15
-7.18845e-18
-2.34117e-15
-7.31085e-18
-2.33374e-15
-7.42571e-18
-2.32621e-15
-7.53463e-18
-2.31857e-15
-7.63692e-18
-2.31084e-15
-7.73278e-18
-2.30301e-15
-7.82701e-18
-2.29508e-15
-7.92872e-18
-2.28703e-15
-8.04953e-18
-2.27883e-15
-8.19569e-18
-2.27046e-15
-8.36305e-18
-2.26193e-15
-8.53753e-18
-2.25322e-15
-8.70208e-18
-2.24438e-15
-8.84679e-18
-2.2354e-15
-8.97617e-18
-2.22629e-15
-9.10667e-18
-2.21704e-15
-9.25611e-18
-2.2076e-15
-9.43453e-18
-2.19796e-15
-9.63799e-18
-2.18811e-15
-9.85209e-18
-2.17805e-15
-1.00609e-17
-2.16779e-15
-1.02592e-17
-2.15734e-15
-1.04543e-17
-2.14668e-15
-1.06611e-17
-2.13578e-15
-1.0893e-17
-2.12463e-15
-1.11571e-17
-2.11318e-15
-1.14526e-17
-2.1014e-15
-1.17717e-17
-2.0893e-15
-1.21012e-17
-2.07687e-15
-1.24288e-17
-2.06412e-15
-1.27521e-17
-2.05103e-15
-1.30843e-17
-2.03758e-15
-1.34522e-17
-2.02369e-15
-1.38866e-17
-2.00929e-15
-1.4406e-17
-1.99428e-15
-1.50044e-17
-1.97863e-15
-1.56572e-17
-1.96228e-15
-1.63449e-17
-1.94521e-15
-1.70749e-17
-1.92732e-15
-1.78871e-17
-1.90849e-15
-1.88346e-17
-1.88852e-15
-1.99632e-17
-1.86723e-15
-2.12953e-17
-1.84439e-15
-2.28436e-17
-1.81975e-15
-2.46355e-17
-1.79303e-15
-2.67297e-17
-1.7638e-15
-2.92237e-17
-1.73155e-15
-3.22513e-17
-1.69556e-15
-3.59911e-17
-1.65487e-15
-4.06877e-17
-1.60819e-15
-4.66852e-17
-1.5537e-15
-5.44918e-17
-1.48872e-15
-6.49789e-17
-1.40879e-15
-7.99234e-17
-1.30584e-15
-1.02948e-16
-1.16091e-15
-1.44933e-16
-9.06914e-16
-2.5399e-16
-4.05643e-16
-5.01269e-16
4.49917e-16
-8.55558e-16
1.647e-15
-1.19708e-15
3.10752e-15
-1.46052e-15
4.66687e-15
-1.55935e-15
6.92029e-15
-2.25342e-15
7.69893e-15
-7.78635e-16
1.12789e-14
-3.57996e-15
9.80973e-15
1.46917e-15
1.40103e-14
-4.20057e-15
9.32056e-15
4.68973e-15
1.48152e-14
-5.49467e-15
8.78092e-15
6.03431e-15
1.42243e-14
-5.44337e-15
7.66777e-15
6.55652e-15
1.40395e-14
-6.37174e-15
8.04005e-15
5.99946e-15
2.40436e-14
-1.60035e-14
1.16343e-14
1.24093e-14
1.41114e-14
-2.4771e-15
-1.90392e-15
1.60153e-14
-1.82194e-15
-8.19728e-17
-5.33434e-15
3.5124e-15
-5.10888e-15
-2.2546e-16
-7.37858e-15
2.2697e-15
-5.98199e-15
-1.39659e-15
-5.37556e-15
-6.06435e-16
-2.11463e-15
-3.26093e-15
-5.66228e-16
-1.5484e-15
3.02599e-15
-3.59222e-15
4.89365e-15
-1.86767e-15
7.66575e-15
-2.77209e-15
8.9637e-15
-1.29795e-15
1.03397e-14
-1.37595e-15
1.03974e-14
-5.77554e-17
1.0202e-14
1.95421e-16
8.66955e-15
1.53244e-15
7.46092e-15
1.20863e-15
5.288e-15
2.17292e-15
4.47012e-15
8.17883e-16
2.62594e-15
1.84418e-15
3.0903e-15
-4.64356e-16
2.36325e-15
7.2705e-16
4.18631e-15
-1.82306e-15
5.82208e-15
-1.63577e-15
9.55409e-15
-3.73201e-15
1.40094e-14
-4.45529e-15
2.1966e-14
-7.95658e-15
2.85851e-14
-6.61912e-15
3.56432e-14
-7.05806e-15
4.62189e-14
-1.05758e-14
6.17803e-14
-1.55614e-14
6.26801e-14
-8.99751e-16
1.06641e-13
-4.39609e-14
7.76136e-14
2.90274e-14
1.00717e-13
-2.31035e-14
2.24161e-13
-1.23444e-13
1.53423e-13
7.07376e-14
2.41833e-13
-8.84101e-14
2.16444e-13
2.5389e-14
1.74634e-13
4.18102e-14
1.27551e-13
4.70831e-14
9.51558e-14
3.23952e-14
7.04964e-14
2.46594e-14
5.02462e-14
2.02502e-14
3.51451e-14
1.51011e-14
2.5268e-14
9.87717e-15
1.97679e-14
5.50007e-15
1.59047e-14
3.86322e-15
1.32364e-14
2.66833e-15
1.12259e-14
2.01043e-15
9.37884e-15
1.84708e-15
7.74284e-15
1.636e-15
6.34863e-15
1.39421e-15
5.42433e-15
9.243e-16
4.23303e-15
1.1913e-15
3.10765e-15
1.12538e-15
2.12961e-15
9.7804e-16
1.22973e-15
8.99881e-16
3.40372e-16
8.89357e-16
-5.38518e-16
8.7889e-16
-1.3785e-15
8.39979e-16
-2.07706e-15
6.98561e-16
-2.76788e-15
6.90825e-16
-3.39519e-15
6.27308e-16
-4.02747e-15
6.32276e-16
-4.65401e-15
6.26539e-16
-5.21786e-15
5.63852e-16
-5.76183e-15
5.43965e-16
-6.25604e-15
4.94211e-16
-6.77901e-15
5.22978e-16
-7.29965e-15
5.20641e-16
-7.79123e-15
4.9158e-16
-8.23183e-15
4.40601e-16
-8.68384e-15
4.52002e-16
-9.07315e-15
3.89314e-16
-9.33201e-15
2.58863e-16
-9.51521e-15
1.83197e-16
-9.53811e-15
2.29016e-17
-9.3034e-15
-2.34714e-16
-8.58968e-15
-7.13722e-16
-7.09237e-15
-1.4973e-15
-4.34394e-15
-2.74843e-15
-1.28477e-17
-4.33109e-15
6.03717e-15
-6.05002e-15
1.31355e-14
-7.09832e-15
2.00971e-14
-6.96156e-15
7.57221e-15
2.2272e-16
-4.66342e-15
1.87826e-16
-6.52715e-15
5.95311e-17
-7.44732e-15
-1.12781e-16
-7.56015e-15
-2.43844e-16
-7.02877e-15
-2.808e-16
-5.90195e-15
-2.52803e-16
-4.15815e-15
-1.66112e-16
-1.85328e-15
-8.37743e-17
8.92639e-16
-2.60947e-17
3.8688e-15
6.502e-18
6.97699e-15
2.5958e-17
1.01982e-14
3.95958e-17
1.34936e-14
5.08618e-17
1.68332e-14
6.13443e-17
2.01959e-14
7.1391e-17
2.35666e-14
8.08471e-17
2.69343e-14
8.94608e-17
3.02901e-14
9.70723e-17
3.36269e-14
1.03652e-16
3.69387e-14
1.09264e-16
4.0221e-14
1.14012e-16
4.34698e-14
1.18004e-16
4.66824e-14
1.21323e-16
4.98562e-14
1.24034e-16
5.29892e-14
1.26176e-16
5.60793e-14
1.27779e-16
5.91245e-14
1.28866e-16
6.21229e-14
1.29458e-16
6.50722e-14
1.29579e-16
6.79701e-14
1.2925e-16
7.08143e-14
1.28495e-16
7.36021e-14
1.27337e-16
7.63308e-14
1.25796e-16
7.89977e-14
1.23891e-16
8.15998e-14
1.21641e-16
8.4134e-14
1.19059e-16
8.65972e-14
1.16161e-16
8.89861e-14
1.12956e-16
9.12975e-14
1.09457e-16
9.35279e-14
1.05673e-16
9.56738e-14
1.01615e-16
9.7732e-14
9.7292e-17
9.96988e-14
9.27138e-17
1.01571e-13
8.78909e-17
1.03345e-13
8.28349e-17
1.05018e-13
7.75564e-17
1.06586e-13
7.20683e-17
1.08047e-13
6.63841e-17
1.09397e-13
6.05182e-17
1.10634e-13
5.44854e-17
1.11756e-13
4.83017e-17
1.12759e-13
4.19843e-17
1.13642e-13
3.55507e-17
1.14404e-13
2.90186e-17
1.15041e-13
2.24069e-17
1.15554e-13
1.57348e-17
1.1594e-13
9.02082e-18
1.162e-13
2.28439e-18
1.16332e-13
-4.45612e-18
1.16336e-13
-1.11823e-17
1.16213e-13
-1.78766e-17
1.15961e-13
-2.45225e-17
1.15583e-13
-3.11041e-17
1.15079e-13
-3.76069e-17
1.14449e-13
-4.40178e-17
1.13695e-13
-5.0325e-17
1.12819e-13
-5.65185e-17
1.11823e-13
-6.25884e-17
1.10708e-13
-6.85274e-17
1.09477e-13
-7.4328e-17
1.08132e-13
-7.99838e-17
1.06676e-13
-8.54868e-17
1.05112e-13
-9.08283e-17
1.03442e-13
-9.59982e-17
1.01669e-13
-1.00981e-16
9.9797e-14
-1.05758e-16
9.78288e-14
-1.10305e-16
9.57677e-14
-1.14589e-16
9.36171e-14
-1.18568e-16
9.13802e-14
-1.22195e-16
8.90606e-14
-1.2541e-16
8.66616e-14
-1.28151e-16
8.41869e-14
-1.30348e-16
8.16398e-14
-1.31933e-16
7.9024e-14
-1.32846e-16
7.63431e-14
-1.33039e-16
7.36006e-14
-1.32489e-16
7.08e-14
-1.31202e-16
6.79447e-14
-1.29222e-16
6.50379e-14
-1.26629e-16
6.20825e-14
-1.23532e-16
5.9081e-14
-1.20054e-16
5.60355e-14
-1.16306e-16
5.29474e-14
-1.12357e-16
4.98179e-14
-1.08197e-16
4.66477e-14
-1.03719e-16
4.34375e-14
-9.87134e-17
4.01882e-14
-9.28821e-17
3.69016e-14
-8.58928e-17
3.35806e-14
-7.74396e-17
3.02297e-14
-6.73222e-17
2.68554e-14
-5.55147e-17
2.34663e-14
-4.21014e-17
2.00736e-14
-2.69226e-17
1.66912e-14
-9.87185e-18
1.33371e-14
1.14013e-17
1.00322e-14
4.21558e-17
6.8029e-15
9.74702e-17
3.67274e-15
1.87478e-16
6.51315e-16
3.09745e-16
-2.14036e-15
4.16425e-16
-4.47691e-15
4.69006e-16
-6.21066e-15
3.41186e-16
-7.18305e-15
9.3333e-17
-7.57423e-15
-1.11844e-16
-7.42777e-15
-1.94361e-16
-6.52036e-15
-4.67176e-15
-2.86506e-14
-5.82266e-14
-5.78943e-14
-7.77639e-14
-7.75468e-14
-6.12429e-14
-7.38379e-14
-3.74513e-14
-6.88751e-14
-2.23083e-14
-6.59525e-14
-3.09837e-14
-6.47546e-14
-3.50555e-14
-5.3653e-14
-3.03415e-14
-3.83966e-14
-2.43419e-14
-1.978e-14
-2.33748e-14
1.2119e-15
-2.54568e-14
2.37246e-14
-2.96706e-14
4.82897e-14
-3.54888e-14
7.37724e-14
-4.33e-14
1.00185e-13
-5.28924e-14
1.27793e-13
-6.32996e-14
1.56197e-13
-7.52208e-14
1.84518e-13
-8.9696e-14
2.12383e-13
-1.06087e-13
2.39758e-13
-1.23696e-13
2.65787e-13
-1.45549e-13
2.86977e-13
-1.72098e-13
3.04039e-13
-1.97486e-13
3.26056e-13
-2.19603e-13
3.44564e-13
-2.43057e-13
3.63112e-13
-2.90166e-13
3.51586e-13
-3.35723e-13
3.42589e-13
-3.6797e-13
3.47768e-13
-3.84527e-13
3.48026e-13
-3.99321e-13
3.39808e-13
-4.25244e-13
3.27778e-13
-4.62099e-13
2.81143e-13
-4.84344e-13
2.43377e-13
-4.79467e-13
2.12785e-13
-4.45558e-13
1.72406e-13
-3.92377e-13
1.29578e-13
-3.30967e-13
-2.52726e-13
-4.73709e-15
1.66941e-16
-4.8161e-15
1.60482e-16
-4.94387e-15
2.08617e-16
-5.1659e-15
3.14986e-16
-5.37709e-15
3.01748e-16
-5.54406e-15
2.44058e-16
-5.66889e-15
1.86582e-16
-5.76243e-15
1.41562e-16
-5.83133e-15
1.05081e-16
-5.88111e-15
7.57284e-17
-5.91515e-15
5.16506e-17
-5.9371e-15
3.33315e-17
-5.95124e-15
2.16355e-17
-5.96173e-15
1.62421e-17
-5.97157e-15
1.536e-17
-5.98217e-15
1.66013e-17
-5.99362e-15
1.79727e-17
-6.00518e-15
1.82969e-17
-6.01588e-15
1.71991e-17
-6.02488e-15
1.48737e-17
-6.0317e-15
1.18177e-17
-6.03623e-15
8.60486e-18
-6.03873e-15
5.73626e-18
-6.0397e-15
3.55207e-18
-6.03973e-15
2.20774e-18
-6.03941e-15
1.69724e-18
-6.03925e-15
1.88918e-18
-6.03961e-15
2.58561e-18
-6.04069e-15
3.56283e-18
-6.04254e-15
4.61436e-18
-6.04511e-15
5.57001e-18
-6.04823e-15
6.30861e-18
-6.0517e-15
6.75979e-18
-6.05529e-15
6.89638e-18
-6.05876e-15
6.72741e-18
-6.06191e-15
6.28289e-18
-6.06456e-15
5.60611e-18
-6.06658e-15
4.74702e-18
-6.06787e-15
3.75273e-18
-6.06836e-15
2.66665e-18
-6.06802e-15
1.52592e-18
-6.06684e-15
3.60039e-19
-6.06482e-15
-8.05571e-19
-6.062e-15
-1.95044e-18
-6.0584e-15
-3.05738e-18
-6.05405e-15
-4.11207e-18
-6.04902e-15
-5.10223e-18
-6.04333e-15
-6.01892e-18
-6.03703e-15
-6.85756e-18
-6.03016e-15
-7.61681e-18
-6.02275e-15
-8.30286e-18
-6.01484e-15
-8.92582e-18
-6.00645e-15
-9.49929e-18
-5.99762e-15
-1.00403e-17
-5.98835e-15
-1.05655e-17
-5.97866e-15
-1.1089e-17
-5.96856e-15
-1.162e-17
-5.95807e-15
-1.21635e-17
-5.94718e-15
-1.27166e-17
-5.93591e-15
-1.32727e-17
-5.92426e-15
-1.38216e-17
-5.91225e-15
-1.43522e-17
-5.89989e-15
-1.48552e-17
-5.88719e-15
-1.5323e-17
-5.87416e-15
-1.57547e-17
-5.86082e-15
-1.61519e-17
-5.84718e-15
-1.652e-17
-5.83325e-15
-1.68671e-17
-5.81903e-15
-1.72003e-17
-5.80454e-15
-1.75285e-17
-5.78977e-15
-1.78574e-17
-5.77474e-15
-1.81912e-17
-5.75944e-15
-1.85319e-17
-5.74388e-15
-1.8881e-17
-5.72807e-15
-1.92385e-17
-5.712e-15
-1.95992e-17
-5.69569e-15
-1.99588e-17
-5.67914e-15
-2.03087e-17
-5.66235e-15
-2.06429e-17
-5.64532e-15
-2.09541e-17
-5.62806e-15
-2.12382e-17
-5.61057e-15
-2.14958e-17
-5.59285e-15
-2.17327e-17
-5.57491e-15
-2.19587e-17
-5.55674e-15
-2.21865e-17
-5.53835e-15
-2.24287e-17
-5.51973e-15
-2.26954e-17
-5.50089e-15
-2.29915e-17
-5.48181e-15
-2.33165e-17
-5.46249e-15
-2.36644e-17
-5.44293e-15
-2.40261e-17
-5.42312e-15
-2.43922e-17
-5.40308e-15
-2.4752e-17
-5.38278e-15
-2.50996e-17
-5.36223e-15
-2.5432e-17
-5.34143e-15
-2.57505e-17
-5.32038e-15
-2.60603e-17
-5.29907e-15
-2.63695e-17
-5.27749e-15
-2.6687e-17
-5.25565e-15
-2.70209e-17
-5.23355e-15
-2.73759e-17
-5.21117e-15
-2.77535e-17
-5.1885e-15
-2.81519e-17
-5.16555e-15
-2.85664e-17
-5.14229e-15
-2.89891e-17
-5.11873e-15
-2.94128e-17
-5.09486e-15
-2.98282e-17
-5.07068e-15
-3.02292e-17
-5.0462e-15
-3.06119e-17
-5.02141e-15
-3.09768e-17
-4.99631e-15
-3.13315e-17
-4.97089e-15
-3.16883e-17
-4.94515e-15
-3.20616e-17
-4.91908e-15
-3.24643e-17
-4.89268e-15
-3.29031e-17
-4.86593e-15
-3.33765e-17
-4.83882e-15
-3.38755e-17
-4.81135e-15
-3.43873e-17
-4.78351e-15
-3.49007e-17
-4.7553e-15
-3.54103e-17
-4.72669e-15
-3.59158e-17
-4.69769e-15
-3.64218e-17
-4.6683e-15
-3.69312e-17
-4.63848e-15
-3.74455e-17
-4.60825e-15
-3.79653e-17
-4.57758e-15
-3.84951e-17
-4.54646e-15
-3.90426e-17
-4.51489e-15
-3.96182e-17
-4.48286e-15
-4.0229e-17
-4.45034e-15
-4.08726e-17
-4.41734e-15
-4.15371e-17
-4.38384e-15
-4.22068e-17
-4.34981e-15
-4.28727e-17
-4.31525e-15
-4.35381e-17
-4.28014e-15
-4.42187e-17
-4.24446e-15
-4.49319e-17
-4.20821e-15
-4.5689e-17
-4.17136e-15
-4.64876e-17
-4.13389e-15
-4.73171e-17
-4.09579e-15
-4.81658e-17
-4.05702e-15
-4.90325e-17
-4.01754e-15
-4.9928e-17
-3.97734e-15
-5.0869e-17
-3.93636e-15
-5.18712e-17
-3.89457e-15
-5.29443e-17
-3.85193e-15
-5.40914e-17
-3.80839e-15
-5.53105e-17
-3.76389e-15
-5.65982e-17
-3.71837e-15
-5.79514e-17
-3.67174e-15
-5.93766e-17
-3.62393e-15
-6.08957e-17
-3.57483e-15
-6.25471e-17
-3.52434e-15
-6.43764e-17
-3.47233e-15
-6.64212e-17
-3.41863e-15
-6.86986e-17
-3.36308e-15
-7.12114e-17
-3.30546e-15
-7.39708e-17
-3.24551e-15
-7.7019e-17
-3.18296e-15
-8.04389e-17
-3.11746e-15
-8.4338e-17
-3.0486e-15
-8.88287e-17
-2.97587e-15
-9.40235e-17
-2.89867e-15
-1.00049e-16
-2.81623e-15
-1.0708e-16
-2.72759e-15
-1.15368e-16
-2.63155e-15
-1.25265e-16
-2.52655e-15
-1.37252e-16
-2.41055e-15
-1.51991e-16
-2.28081e-15
-1.70429e-16
-2.13354e-15
-1.93951e-16
-1.96335e-15
-2.24686e-16
-1.76223e-15
-2.66095e-16
-1.51795e-15
-3.24198e-16
-1.21032e-15
-4.10573e-16
-8.0486e-16
-5.5039e-16
-2.69691e-16
-7.89155e-16
3.90889e-16
-1.16185e-15
1.16738e-15
-1.63205e-15
2.07397e-15
-2.10367e-15
3.1111e-15
-2.49764e-15
4.37937e-15
-2.82763e-15
5.14954e-15
-3.02359e-15
7.25751e-15
-2.8866e-15
6.7102e-15
-3.03265e-15
1.00211e-14
-1.84177e-15
7.97551e-15
-2.15495e-15
1.2729e-14
-6.37869e-17
1.00638e-14
-2.82941e-15
1.50481e-14
1.04996e-15
1.40867e-14
-4.48201e-15
1.85278e-14
2.11542e-15
1.49246e-14
-2.76851e-15
1.75497e-14
3.37439e-15
-1.06989e-15
2.61603e-15
4.60641e-15
6.73298e-15
2.34199e-15
-2.12682e-16
1.20863e-14
6.27097e-15
1.08133e-14
1.19104e-15
1.01582e-14
4.1675e-15
5.4789e-15
4.45387e-15
4.20456e-15
3.54403e-15
2.02519e-15
7.82784e-16
2.61949e-15
-1.20073e-15
2.34418e-15
-2.98562e-15
4.34e-15
-3.54422e-15
4.97186e-15
-4.22408e-15
7.08827e-15
-3.98408e-15
8.07841e-15
-3.76223e-15
9.7551e-15
-2.97463e-15
1.05718e-14
-2.1926e-15
1.16349e-14
-1.1209e-15
1.20271e-14
-1.96748e-16
1.29351e-14
6.24468e-16
1.32515e-14
8.92171e-16
1.44377e-14
9.86686e-16
1.49021e-14
3.53583e-16
1.70229e-14
-2.76698e-16
1.82132e-14
-1.65464e-15
2.18413e-14
-2.90102e-15
2.50871e-14
-5.0689e-15
3.06097e-14
-7.15832e-15
3.67531e-14
-9.87538e-15
4.51987e-14
-1.29009e-14
5.34977e-14
-1.62556e-14
6.53089e-14
-1.84303e-14
8.02352e-14
-2.19843e-14
9.74511e-14
-2.77916e-14
1.13726e-13
-3.18362e-14
1.4888e-13
-3.6054e-14
1.54304e-13
-4.9385e-14
2.2328e-13
-3.99489e-14
2.9096e-13
-9.07835e-14
2.6514e-13
-9.7623e-14
3.24076e-13
1.1801e-14
3.0234e-13
-6.66738e-14
3.07319e-13
2.04099e-14
2.71402e-13
7.77271e-14
2.4576e-13
7.27252e-14
2.02997e-13
7.51582e-14
1.58481e-13
6.91752e-14
1.23826e-13
5.49057e-14
9.55687e-14
4.33582e-14
7.72785e-14
2.81674e-14
6.50306e-14
1.7748e-14
5.53414e-14
1.35524e-14
4.7668e-14
1.03417e-14
4.14371e-14
8.24134e-15
3.63068e-14
6.97731e-15
3.18248e-14
6.11801e-15
2.78364e-14
5.38261e-15
2.40376e-14
4.72309e-15
2.08395e-14
4.38939e-15
1.78053e-14
4.15964e-15
1.49234e-14
3.85992e-15
1.22253e-14
3.59796e-15
9.722e-15
3.39269e-15
7.3951e-15
3.2058e-15
5.2339e-15
3.00118e-15
3.15715e-15
2.77531e-15
1.24917e-15
2.5988e-15
-5.7113e-16
2.44761e-15
-2.27239e-15
2.33354e-15
-3.8749e-15
2.22904e-15
-5.42623e-15
2.11519e-15
-6.90081e-15
2.01855e-15
-8.34938e-15
1.94278e-15
-9.72462e-15
1.89821e-15
-1.1056e-14
1.85207e-15
-1.23522e-14
1.78778e-15
-1.3613e-14
1.70139e-15
-1.47336e-14
1.57261e-15
-1.56674e-14
1.32312e-15
-1.63548e-14
9.462e-16
-1.66182e-14
4.46576e-16
-1.63174e-14
-2.77886e-16
-1.51411e-14
-1.41098e-15
-1.26614e-14
-3.19341e-15
-8.27407e-15
-5.88465e-15
-1.35742e-15
-9.66507e-15
8.75478e-15
-1.44433e-14
2.24948e-14
-1.979e-14
4.00596e-14
-2.46631e-14
-2.51286e-14
-1.98741e-13
-1.0386e-13
-1.52461e-13
-7.70053e-14
-1.16585e-13
-5.57344e-14
-8.96778e-14
-3.93586e-14
-7.00808e-14
-2.71987e-14
-5.61213e-14
-1.86862e-14
-4.6104e-14
-1.29764e-14
-3.87529e-14
-9.24484e-15
-3.32018e-14
-6.8267e-15
-2.88535e-14
-5.25904e-15
-2.54229e-14
-4.23693e-15
-2.26269e-14
-3.48876e-15
-2.02814e-14
-2.88781e-15
-1.83304e-14
-2.40959e-15
-1.6762e-14
-2.00907e-15
-1.54554e-14
-1.61273e-15
-1.4421e-14
-1.24449e-15
-1.36757e-14
-9.07554e-16
-1.31749e-14
-5.62265e-16
-1.29097e-14
-2.1531e-16
-1.28691e-14
1.01347e-16
-1.3139e-14
3.82715e-16
-1.36005e-14
7.15469e-16
-1.43075e-14
1.05093e-15
-1.53196e-14
1.38776e-15
-1.64909e-14
1.76755e-15
-1.79732e-14
2.08482e-15
-1.97137e-14
2.39115e-15
-2.17313e-14
2.71164e-15
-2.41039e-14
3.09523e-15
-2.66109e-14
3.58021e-15
-2.95083e-14
3.9701e-15
-3.29471e-14
4.49652e-15
-3.66897e-14
5.2231e-15
-4.11305e-14
5.98273e-15
-4.61555e-14
6.9766e-15
-5.24479e-14
8.39733e-15
-6.02181e-14
1.04866e-14
-6.96602e-14
1.38384e-14
-8.25152e-14
1.8416e-14
-1.01064e-13
2.89293e-14
-1.30495e-13
4.54516e-14
-1.63774e-13
5.3639e-14
-2.0629e-13
6.6279e-14
-2.4352e-13
7.06294e-14
-2.61927e-13
6.90958e-14
-2.78622e-13
6.70155e-14
-2.9458e-13
3.39834e-14
-3.26882e-13
-7.62492e-14
-2.62565e-13
2.2988e-14
-2.92345e-13
-1.23154e-13
-2.03599e-13
-8.43888e-14
-1.49417e-13
-4.25963e-14
-1.40036e-13
-4.624e-14
-1.05548e-13
-3.09939e-14
-9.20053e-14
-2.90458e-14
-7.55867e-14
-2.55848e-14
-6.17925e-14
-2.07897e-14
-5.08277e-14
-1.7849e-14
-4.25808e-14
-1.55049e-14
-3.45027e-14
-1.2254e-14
-2.86879e-14
-9.39671e-15
-2.33972e-14
-6.75473e-15
-2.03108e-14
-4.73825e-15
-1.69143e-14
-2.66812e-15
-1.57795e-14
-1.46028e-15
-1.38584e-14
-1.70016e-16
-1.33895e-14
4.50037e-16
-1.23572e-14
1.03701e-15
-1.20456e-14
9.54326e-16
-1.12462e-14
6.69637e-16
-1.08533e-14
-1.28588e-16
-9.86497e-15
-1.05875e-15
-9.05978e-15
-2.12592e-15
-7.43998e-15
-2.92743e-15
-6.44792e-15
-3.72009e-15
-4.3811e-15
-3.96576e-15
-3.80509e-15
-4.18612e-15
-1.78948e-15
-3.46213e-15
-2.10002e-15
-2.94135e-15
-1.57438e-15
-1.22331e-15
-3.80217e-15
7.90779e-16
-5.03368e-15
3.61735e-15
-9.81095e-15
4.51112e-15
-1.04696e-14
4.22122e-15
-1.19284e-14
1.23092e-15
-2.17258e-15
6.24586e-15
-4.29438e-15
-2.26813e-16
1.19779e-15
6.84309e-15
-1.73702e-14
2.70206e-15
-1.48292e-14
3.41327e-15
-1.84317e-14
-2.6781e-15
-1.40578e-14
2.16425e-15
-1.49851e-14
-4.58627e-15
-9.95887e-15
1.10458e-15
-1.26614e-14
-2.90421e-15
-7.82792e-15
-2.30563e-17
-9.93383e-15
-2.15289e-15
-6.58193e-15
-1.81506e-15
-7.16022e-15
-3.02438e-15
-5.0424e-15
-2.88017e-15
-4.28386e-15
-3.02419e-15
-3.01619e-15
-2.82881e-15
-1.9812e-15
-2.49805e-15
-1.07663e-15
-2.10385e-15
-3.0269e-16
-1.63183e-15
3.55236e-16
-1.16068e-15
8.87906e-16
-7.86709e-16
1.29074e-15
-5.4696e-16
1.59542e-15
-4.06619e-16
1.83662e-15
-3.19968e-16
2.03468e-15
-2.61773e-16
2.20188e-15
-2.20479e-16
2.34622e-15
-1.89979e-16
2.47312e-15
-1.66634e-16
2.58639e-15
-1.4825e-16
2.68879e-15
-1.33537e-16
2.78235e-15
-1.21676e-16
2.86864e-15
-1.12012e-16
2.94886e-15
-1.03987e-16
3.02396e-15
-9.7186e-17
3.09469e-15
-9.13649e-17
3.16166e-15
-8.63688e-17
3.22538e-15
-8.20369e-17
3.28627e-15
-7.82056e-17
3.34466e-15
-7.47667e-17
3.40083e-15
-7.17075e-17
3.45501e-15
-6.90562e-17
3.5074e-15
-6.6791e-17
3.55819e-15
-6.48013e-17
3.60752e-15
-6.29366e-17
3.6555e-15
-6.11146e-17
3.70224e-15
-5.93683e-17
3.74786e-15
-5.78075e-17
3.79242e-15
-5.64914e-17
3.836e-15
-5.53634e-17
3.87864e-15
-5.42814e-17
3.9204e-15
-5.31401e-17
3.96133e-15
-5.19422e-17
4.00149e-15
-5.07758e-17
4.0409e-15
-4.97135e-17
4.0796e-15
-4.87566e-17
4.11763e-15
-4.78567e-17
4.15501e-15
-4.69869e-17
4.19178e-15
-4.61691e-17
4.22795e-15
-4.54417e-17
4.26354e-15
-4.48058e-17
4.29856e-15
-4.42055e-17
4.33305e-15
-4.35669e-17
4.367e-15
-4.28508e-17
4.40045e-15
-4.20852e-17
4.43338e-15
-4.13424e-17
4.46582e-15
-4.06875e-17
4.49778e-15
-4.01295e-17
4.52927e-15
-3.96175e-17
4.56032e-15
-3.90794e-17
4.59092e-15
-3.84765e-17
4.6211e-15
-3.78327e-17
4.65086e-15
-3.72138e-17
4.6802e-15
-3.66751e-17
4.70915e-15
-3.62165e-17