/*--------------------------------*- C++ -*----------------------------------*\
| =========                 |                                                 |
| \\      /  F ield         | OpenFOAM: The Open Source CFD Toolbox           |
|  \\    /   O peration     | Version:  2.2.1                                 |
|   \\  /    A nd           | Web:      www.OpenFOAM.org                      |
|    \\/     M anipulation  |                                                 |
\*---------------------------------------------------------------------------*/
FoamFile
{
    version     2.0;
    format      ascii;
    class       volVectorField;
    location    "2e-05";
    object      U;
}
// * * * * * * * * * * * * * * * * * * * * * * * * * * * * * * * * * * * * * //

dimensions      [0 1 -1 0 0 0 0];

internalField   nonuniform List<vector> 
22464
(
(0.0315336 0.50045 -7.45682e-43)
(0.00576463 0.288373 -6.13458e-44)
(0.000345686 0.17243 0)
(-0.000833862 0.108291 -5.47649e-44)
(-0.00187811 0.0696041 -9.62035e-44)
(-0.00245766 0.0455837 -1.02835e-44)
(-0.002402 0.0308972 3.60052e-44)
(-0.00220338 0.0218463 2.74155e-44)
(-0.00197097 0.016167 0)
(-0.00170911 0.0124695 -1.55011e-43)
(-0.00144681 0.00989219 -1.12931e-46)
(-0.0010366 0.00784655 1.49735e-43)
(-0.000739908 0.00601813 7.4724e-45)
(-0.000575145 0.00445938 6.57037e-45)
(-0.000392251 0.00317291 0)
(-0.000166387 0.002032 1.28004e-43)
(-0.000118066 0.00106242 1.29334e-43)
(-7.07166e-05 0.000377121 -1.2574e-43)
(7.3574e-06 -0.000102831 -1.22828e-43)
(-1.06708e-05 -0.000394035 0)
(-8.48517e-05 -0.000415224 1.1714e-43)
(-0.00016079 -0.00018223 1.14534e-43)
(-0.000112628 0.000166649 0)
(-0.000293848 0.000632694 2.31782e-46)
(-0.000447972 0.00137887 0)
(-0.000559839 0.00232763 1.05107e-43)
(-0.000939379 0.00356166 2.03092e-43)
(-0.00110982 0.00511265 -2.78779e-45)
(-0.00133078 0.00674514 -1.14332e-51)
(-0.00155392 0.00846854 1.88484e-43)
(-0.0017833 0.0103263 1.0976e-43)
(-0.00246228 0.0125976 3.25815e-45)
(-0.00276144 0.0153353 -6.18546e-45)
(-0.0030363 0.0181348 -1.02026e-44)
(-0.00388628 0.0213435 9.45436e-44)
(-0.00437557 0.0252338 1.80747e-43)
(-0.00528616 0.0296541 9.15306e-44)
(-0.00592799 0.0347838 8.1324e-44)
(-0.00717767 0.0408904 1.9459e-43)
(-0.00990673 0.0494854 9.00095e-44)
(-0.0121259 0.0617556 -3.43975e-44)
(-0.0191327 0.0810627 1.76705e-44)
(-0.0292536 0.114257 -1.18422e-43)
(-0.0387674 0.160435 2.26374e-44)
(-0.050475 0.217128 9.41124e-43)
(-0.0734696 0.292891 -1.62837e-50)
(-0.111883 0.403011 -2.82553e-42)
(-0.139013 0.52595 -3.3004e-42)
(-0.146227 0.580008 -4.04552e-42)
(-0.141234 0.524213 -6.76346e-42)
(-0.235502 0.388494 1.18305e-50)
(-0.0274555 0.474856 6.95865e-42)
(-0.0709598 0.208361 1.70103e-42)
(-0.0589474 0.205042 -1.50451e-42)
(0.00248983 0.192432 4.07976e-43)
(-0.0303474 0.148451 -1.73344e-51)
(-0.00737075 0.131182 -1.44208e-42)
(-0.00804702 0.101284 -3.9017e-43)
(-0.00692863 0.0790518 -2.23315e-43)
(-0.00390155 0.0609196 -3.69277e-43)
(-0.000541742 0.0431091 1.63017e-52)
(-0.00126101 0.0278924 -1.48821e-43)
(-0.0002421 0.0177013 -9.45958e-47)
(-0.00112779 0.0109466 2.80805e-43)
(-0.00023542 0.0071193 -3.20157e-45)
(-0.00222841 0.00563224 -3.93889e-44)
(-0.00112794 0.00639435 1.75959e-43)
(-0.00332752 0.00809089 8.56078e-44)
(-0.00294578 0.0116651 -6.01672e-45)
(-0.0045842 0.0155292 -1.38165e-43)
(-0.00438878 0.0200012 -2.82948e-43)
(-0.00507363 0.0236191 4.76749e-44)
(-0.00420423 0.0260727 -2.63078e-45)
(-0.0038912 0.0264069 -4.99178e-43)
(-0.00242087 0.0248104 -2.35242e-43)
(-0.00192138 0.0213174 -2.0329e-43)
(0.000213398 0.0163148 -1.19244e-43)
(0.000326082 0.0100419 8.54114e-44)
(0.00305618 0.00313399 4.18107e-44)
(0.00195971 -0.00385787 7.68389e-44)
(0.00470877 -0.00977404 1.01393e-43)
(0.00309128 -0.0153122 -2.26294e-43)
(0.00425351 -0.0179531 -2.34443e-43)
(0.000347623 -0.017339 3.68934e-44)
(0.00253296 -0.0140562 -5.40954e-44)
(-0.0019776 -0.0105461 -1.99572e-43)
(0.000764675 -0.0048607 -1.81488e-43)
(-0.0192897 0.0121251 1.18991e-43)
(-0.00233142 0.0337334 3.05585e-43)
(-0.0182509 0.0436592 9.62542e-43)
(0.0107596 0.0428503 4.68656e-43)
(-0.00917303 0.0283337 3.07375e-43)
(0.00236218 0.0285849 -8.27031e-45)
(-0.0111725 0.0268637 3.61084e-43)
(0.00119899 0.0305407 2.47335e-43)
(-0.0111654 0.0292129 0)
(0.00112144 0.031903 -1.49597e-43)
(-0.00955301 0.0295054 -5.9485e-43)
(-0.000231077 0.0312225 -1.53229e-50)
(-0.00565792 0.0273198 3.72563e-43)
(6.46105e-05 0.024939 0)
(-0.00203898 0.0192174 2.20307e-44)
(6.11152e-05 0.0151395 2.57775e-44)
(6.90187e-05 0.0102385 -5.49293e-45)
(0.000522613 0.00619542 0)
(0.00075932 0.00271458 2.18976e-44)
(0.000790773 2.43436e-06 -2.54318e-45)
(0.000676053 -0.0018029 -2.08e-44)
(0.000565178 -0.0028032 -2.29092e-44)
(0.000538815 -0.00331111 -2.25935e-44)
(0.000555447 -0.00361251 -2.37486e-44)
(0.000576225 -0.00383617 -2.23919e-44)
(0.000594951 -0.00401708 -2.24746e-44)
(0.000611579 -0.00416727 -2.25202e-44)
(0.000626402 -0.0042944 -2.31245e-44)
(0.000639572 -0.00440408 0)
(0.000651206 -0.00450028 0)
(0.000661583 -0.00458577 -2.24643e-44)
(0.000671041 -0.00466254 -2.27759e-44)
(0.000679823 -0.00473217 0)
(0.000688022 -0.00479606 0)
(0.000695683 -0.00485529 -8.92464e-53)
(0.000702886 -0.00491059 -2.80767e-46)
(0.000709716 -0.00496241 -2.23808e-44)
(0.000716234 -0.00501108 -2.23191e-44)
(0.000722432 -0.00505701 0)
(0.000728281 -0.00510057 0)
(0.000733795 -0.00514204 -2.20458e-44)
(0.000739069 -0.00518168 -2.19176e-44)
(0.000744248 -0.00521973 0)
(0.0007494 -0.00525641 0)
(0.000754453 -0.00529191 0)
(0.00075924 -0.00532634 0)
(0.000763681 -0.00535977 -2.14865e-44)
(0.000767911 -0.00539222 -2.13753e-44)
(0.00077217 -0.00542372 -2.11e-44)
(0.000776575 -0.00545443 -2.11925e-44)
(0.000781012 -0.00548453 0)
(0.000785256 -0.00551408 0)
(0.000789206 -0.00554301 -2.10723e-44)
(0.000792947 -0.00557115 -2.10017e-44)
(0.000796622 -0.00559838 0)
(0.000800279 -0.00562477 0)
(0.00080386 -0.00565047 2.08634e-44)
(0.000807317 -0.00567566 2.06027e-44)
(0.000810679 -0.00570041 -2.0487e-44)
(0.000814039 -0.00572477 -2.02393e-44)
(0.000817454 -0.00574878 0)
(0.000820902 -0.00577251 -1.29034e-46)
(0.0008243 -0.00579595 0)
(0.000827572 -0.00581907 0)
(0.00083069 -0.00584178 0)
(0.000833689 -0.00586401 -2.00248e-44)
(0.000836642 -0.00588578 -1.9949e-44)
(0.000839625 -0.00590716 1.98827e-44)
(0.000842658 -0.00592822 3.96709e-44)
(0.000845684 -0.00594899 3.96061e-44)
(0.00084861 -0.00596947 1.9892e-44)
(0.000851375 -0.0059896 -1.97237e-44)
(0.00085401 -0.00600933 -1.96595e-44)
(0.000856615 -0.00602866 -1.94774e-44)
(0.000859281 -0.00604765 -1.95269e-44)
(0.000862007 -0.00606637 0)
(0.000864711 -0.00608486 1.09942e-46)
(0.000867297 -0.0061031 -1.94126e-44)
(0.000869738 -0.00612103 -1.13621e-46)
(0.000872095 -0.00613862 1.11326e-46)
(0.000874459 -0.00615588 -1.92271e-44)
(0.00087688 -0.00617286 0)
(0.00087933 -0.00618964 -1.91262e-44)
(0.000881736 -0.00620625 -1.90938e-44)
(0.000884043 -0.00622267 -1.89576e-44)
(0.000886257 -0.00623885 -3.80383e-44)
(0.000888422 -0.00625475 -9.87089e-47)
(0.000890589 -0.00627036 9.53412e-47)
(0.000892769 -0.00628571 -3.77503e-44)
(0.000894937 -0.00630082 -1.89288e-44)
(0.00089705 -0.00631571 -1.87987e-44)
(0.000899084 -0.00633036 -3.7508e-44)
(0.000901051 -0.00634474 -1.87911e-44)
(0.000902984 -0.00635888 -1.86378e-44)
(0.000904927 -0.00637282 -1.85786e-44)
(0.000906899 -0.00638661 1.85303e-44)
(0.000908892 -0.00640029 3.69931e-44)
(0.000910871 -0.00641386 3.69463e-44)
(0.000912794 -0.00642726 1.85358e-44)
(0.000914627 -0.0064404 -1.84154e-44)
(0.000916369 -0.00645324 -1.83632e-44)
(0.000918047 -0.00646577 -1.82088e-44)
(0.000919712 -0.00647803 -3.64397e-44)
(0.000921406 -0.0064901 -1.81499e-44)
(0.000923141 -0.00650207 1.80936e-44)
(0.000924893 -0.00651395 2.38234e-52)
(0.000926607 -0.00652569 -7.72758e-47)
(0.000928235 -0.00653721 8.09779e-47)
(0.000929758 -0.00654843 -1.79061e-44)
(0.000931194 -0.0065593 0)
(0.000932591 -0.00656986 -1.77209e-44)
(0.000934 -0.00658019 -1.76167e-44)
(0.000935448 -0.00659037 -1.74468e-44)
(0.000936929 -0.00660048 -3.48782e-44)
(0.000938408 -0.00661055 -6.99704e-47)
(0.00093985 -0.00662055 6.98913e-47)
(0.000941233 -0.00663041 -3.45078e-44)
(0.000942558 -0.0066401 -1.72608e-44)
(0.000943848 -0.00664957 1.71252e-44)
(0.000945124 -0.00665886 1.70589e-44)
(0.000946399 -0.00666796 -6.34692e-47)
(0.000947672 -0.00667691 -1.69431e-44)
(0.000948925 -0.00668572 -6.00008e-47)
(0.000950146 -0.00669436 1.68536e-44)
(0.000951317 -0.00670281 -1.68119e-44)
(0.000952442 -0.00671105 -6.31334e-52)
(0.000953523 -0.00671903 3.34443e-44)
(0.000954568 -0.00672676 5.42643e-47)
(0.000955583 -0.00673422 -1.66266e-44)
(0.000956568 -0.00674141 -1.65294e-44)
(0.000957516 -0.00674834 -3.30708e-44)
(0.000958424 -0.00675501 -4.87472e-47)
(0.000959285 -0.00676139 4.845e-47)
(0.000960098 -0.00676748 -1.63994e-44)
(0.000960866 -0.00677326 1.63021e-44)
(0.000961589 -0.00677873 4.7212e-47)
(0.000962271 -0.0067839 -1.62483e-44)
(0.000962918 -0.00678877 0)
(0.000963527 -0.00679335 -1.61562e-44)
(0.0009641 -0.00679764 -3.84767e-47)
(0.000964629 -0.00680164 1.60859e-44)
(0.000965106 -0.00680532 -1.60574e-44)
(0.000965523 -0.00680866 -3.41188e-47)
(0.000965869 -0.00681162 3.33831e-47)
(0.000966144 -0.00681418 -3.19354e-44)
(0.000966355 -0.00681634 -1.59616e-44)
(0.00096651 -0.00681809 -1.58923e-44)
(0.00096662 -0.00681946 -1.5855e-44)
(0.000966694 -0.00682047 0)
(0.000966736 -0.00682117 -1.57986e-44)
(0.000966741 -0.00682154 -1.49942e-47)
(0.0009667 -0.0068216 1.57763e-44)
(0.000966603 -0.0068213 -1.57746e-44)
(0.000966436 -0.00682061 -1.57839e-44)
(0.000966192 -0.00681949 0)
(0.000965869 -0.00681791 -1.57685e-44)
(0.000965475 -0.00681585 -1.57599e-44)
(0.000965016 -0.0068133 -1.57467e-44)
(0.000964493 -0.00681026 -3.14697e-44)
(0.000963903 -0.00680673 -1.57201e-44)
(0.000963235 -0.00680267 -1.5703e-44)
(0.000962475 -0.00679803 -1.56805e-44)
(0.000961601 -0.00679275 4.14556e-48)
(0.000960594 -0.00678675 -1.56017e-44)
(0.000959449 -0.00677996 -3.10746e-44)
(0.000958168 -0.00677235 -1.54546e-44)
(0.000956762 -0.0067639 -1.53561e-44)
(0.000955251 -0.00675466 -1.52472e-44)
(0.000953657 -0.00674469 -5.63155e-62)
(0.000952 -0.00673407 -1.50266e-44)
(0.000950292 -0.00672288 -1.4927e-44)
(0.000948535 -0.0067112 2.47056e-47)
(0.000946719 -0.00669907 -1.47871e-44)
(0.000944836 -0.00668649 -1.46866e-44)
(0.000942875 -0.00667345 -1.46135e-44)
(0.000940837 -0.00665995 -5.77059e-47)
(0.000938747 -0.00664602 1.44476e-44)
(0.000936664 -0.00663182 1.43514e-44)
(0.000934674 -0.00661762 2.85304e-44)
(0.000932874 -0.00660386 1.41833e-44)
(0.000931313 -0.00659099 -1.40664e-44)
(0.000929913 -0.00657922 7.51381e-47)
(0.000928373 -0.00656813 1.39225e-44)
(0.000926112 -0.00655614 -5.65702e-47)
(0.000922328 -0.00654033 -1.40323e-44)
(0.000916135 -0.0065165 -1.38339e-44)
(0.000906879 -0.00648001 1.5465e-46)
(0.000894281 -0.00642706 2.10881e-46)
(0.000878721 -0.00635594 2.60474e-46)
(0.000861072 -0.00626196 0)
(0.000842406 -0.0061406 -2.5788e-46)
(0.000822345 -0.00599123 2.06099e-46)
(0.000796911 -0.00582297 1.4045e-46)
(0.000762056 -0.00565551 -5.42807e-45)
(0.000716745 -0.00548377 -4.9957e-45)
(0.000652285 -0.00526431 1.03934e-46)
(0.000587072 -0.00502823 -1.33257e-45)
(0.000445766 -0.00440192 -1.01201e-45)
(-0.000448877 -0.004433 1.06237e-45)
(-0.00058948 -0.00504169 -1.70095e-45)
(-0.000657145 -0.00527652 6.94719e-47)
(-0.000724913 -0.00550361 2.79728e-45)
(-0.000769882 -0.0056953 -2.77111e-46)
(-0.000800786 -0.00587494 -1.45418e-46)
(-0.000823561 -0.00603329 -1.12807e-46)
(-0.000844194 -0.00616945 3.05239e-46)
(-0.0008641 -0.00628434 -2.30044e-46)
(-0.000882398 -0.00637734 -2.22727e-46)
(-0.000897997 -0.00644835 -1.68352e-46)
(-0.00091034 -0.00649881 -6.76141e-48)
(-0.000919164 -0.00653228 -8.14925e-47)
(-0.000924753 -0.00655387 5.6679e-47)
(-0.000927996 -0.00656924 0)
(-0.000929982 -0.00658292 3.90344e-47)
(-0.000931633 -0.00659754 -2.32333e-49)
(-0.000933501 -0.00661383 -1.42442e-44)
(-0.000935762 -0.00663122 -1.14328e-49)
(-0.000938334 -0.00664856 1.43373e-44)
(-0.000941006 -0.00666469 -1.44681e-44)
(-0.000943556 -0.00667876 -1.45877e-44)
(-0.000945804 -0.0066904 1.95232e-51)
(-0.000947659 -0.00669968 -1.47359e-44)
(-0.00094911 -0.006707 -2.96488e-44)
(-0.000950212 -0.00671296 -2.36596e-51)
(-0.000951059 -0.00671822 1.49623e-44)
(-0.000951761 -0.00672336 -8.61868e-48)
(-0.000952422 -0.00672883 -1.07411e-47)
(-0.000953123 -0.00673491 -1.35667e-47)
(-0.00095392 -0.00674171 1.52594e-44)
(-0.000954836 -0.00674922 1.53164e-44)
(-0.000955875 -0.00675729 -1.53665e-44)
(-0.00095702 -0.00676576 -3.08196e-44)
(-0.00095824 -0.00677438 -1.54473e-44)
(-0.000959499 -0.00678296 -4.03769e-47)
(-0.00096076 -0.00679129 -1.55121e-44)
(-0.000961992 -0.0067992 -1.5544e-44)
(-0.000963168 -0.00680657 -1.55781e-44)
(-0.000964265 -0.00681329 -3.12307e-44)
(-0.000965267 -0.00681927 -1.5653e-44)
(-0.000966161 -0.00682447 -1.56981e-44)
(-0.000966943 -0.00682885 -1.57401e-44)
(-0.000967608 -0.00683236 0)
(-0.000968155 -0.00683501 -1.58042e-44)
(-0.000968581 -0.00683681 -1.5837e-44)
(-0.000968887 -0.00683778 1.58528e-44)
(-0.000969073 -0.00683797 1.41055e-47)
(-0.000969149 -0.00683745 -1.58599e-44)
(-0.000969119 -0.0068363 0)
(-0.000968993 -0.00683463 -1.58551e-44)
(-0.00096878 -0.00683252 -1.58593e-44)
(-0.000968495 -0.00683005 -1.58402e-44)
(-0.000968148 -0.00682728 -3.17998e-44)
(-0.000967752 -0.00682426 -4.05106e-47)
(-0.000967316 -0.00682098 4.30516e-47)
(-0.000966844 -0.00681744 -1.60536e-44)
(-0.000966339 -0.0068136 1.61204e-44)
(-0.000965799 -0.00680941 4.58355e-47)
(-0.000965216 -0.00680483 -1.62512e-44)
(-0.000964583 -0.00679984 0)
(-0.000963896 -0.00679441 -1.63554e-44)
(-0.000963147 -0.00678855 -4.66862e-47)
(-0.000962336 -0.0067823 1.64736e-44)
(-0.000961464 -0.00677569 -1.64524e-44)
(-0.000960535 -0.00676878 -5.13804e-47)
(-0.000959557 -0.00676163 5.35585e-47)
(-0.000958538 -0.00675426 -3.30666e-44)
(-0.000957483 -0.00674674 -1.66275e-44)
(-0.000956402 -0.00673906 -1.66131e-44)
(-0.000955296 -0.00673125 -6.13418e-47)
(-0.000954172 -0.00672329 3.34439e-44)
(-0.000953027 -0.00671517 3.40043e-53)
(-0.000951858 -0.00670687 -1.68498e-44)
(-0.000950668 -0.00669835 1.69147e-44)
(-0.000949453 -0.00668959 6.2688e-47)
(-0.00094821 -0.00668056 -1.70324e-44)
(-0.000946934 -0.00667125 6.25183e-47)
(-0.000945625 -0.00666167 1.71228e-44)
(-0.000944281 -0.00665184 1.71589e-44)
(-0.0009429 -0.0066418 -1.71257e-44)
(-0.000941483 -0.00663161 -3.44546e-44)
(-0.000940034 -0.0066213 -7.21097e-47)
(-0.00093856 -0.00661094 7.4894e-47)
(-0.000937066 -0.00660054 -3.4762e-44)
(-0.000935561 -0.00659011 -1.75349e-44)
(-0.000934049 -0.00657964 -1.75416e-44)
(-0.000932533 -0.00656909 -1.76347e-44)
(-0.000931012 -0.00655839 0)
(-0.000929482 -0.0065475 -1.78241e-44)
(-0.000927932 -0.00653635 -7.80455e-47)
(-0.000926355 -0.00652492 7.75323e-47)
(-0.000924744 -0.00651318 6.80801e-53)
(-0.000923092 -0.00650116 1.8112e-44)
(-0.000921396 -0.00648886 -1.81617e-44)
(-0.000919657 -0.00647634 -3.64155e-44)
(-0.000917875 -0.00646363 -1.83372e-44)
(-0.000916056 -0.00645075 -1.83029e-44)
(-0.000914205 -0.00643771 -1.83559e-44)
(-0.000912328 -0.00642453 1.83255e-44)
(-0.000910433 -0.00641117 3.69411e-44)
(-0.000908518 -0.00639761 3.70552e-44)
(-0.00090658 -0.00638381 1.8581e-44)
(-0.000904616 -0.00636973 -1.86288e-44)
(-0.000902618 -0.00635535 -1.86699e-44)
(-0.00090058 -0.00634066 -1.86149e-44)
(-0.000898498 -0.00632566 -3.74636e-44)
(-0.000896374 -0.00631036 -1.87549e-44)
(-0.000894207 -0.00629481 -1.86817e-44)
(-0.000891999 -0.00627904 -3.75948e-44)
(-0.000889753 -0.00626311 -9.88129e-47)
(-0.000887474 -0.00624703 1.01252e-46)
(-0.000885164 -0.00623084 -3.78091e-44)
(-0.000882831 -0.0062145 -1.90645e-44)
(-0.00088048 -0.00619799 -1.90219e-44)
(-0.000878115 -0.00618125 -1.90864e-44)
(-0.000875732 -0.00616423 0)
(-0.000873323 -0.00614687 -1.92048e-44)
(-0.000870875 -0.00612915 -1.07808e-46)
(-0.000868373 -0.00611107 1.09109e-46)
(-0.000865812 -0.00609264 -1.93349e-44)
(-0.000863193 -0.00607387 -1.1217e-46)
(-0.000860526 -0.00605479 0)
(-0.000857817 -0.00603543 -1.94426e-44)
(-0.000855069 -0.0060158 -1.96014e-44)
(-0.000852278 -0.00599591 -1.95284e-44)
(-0.000849438 -0.00597576 -1.95825e-44)
(-0.000846549 -0.00595533 1.95192e-44)
(-0.000843619 -0.00593459 3.9427e-44)
(-0.000840656 -0.0059135 3.95663e-44)
(-0.000837665 -0.00589203 1.98495e-44)
(-0.000834639 -0.00587014 -1.99106e-44)
(-0.00083156 -0.00584785 -1.99685e-44)
(-0.000828409 -0.00582516 0)
(-0.000825176 -0.00580209 0)
(-0.00082187 -0.00577865 0)
(-0.000818507 -0.00575482 1.42034e-46)
(-0.000815103 -0.00573057 0)
(-0.000811665 -0.00570584 -2.05639e-44)
(-0.000808179 -0.00568061 -2.0497e-44)
(-0.000804619 -0.00565484 2.05709e-44)
(-0.00080097 -0.00562855 2.04918e-44)
(-0.000797228 -0.00560174 0)
(-0.000793401 -0.00557438 0)
(-0.000789495 -0.00554643 -2.08956e-44)
(-0.000785515 -0.00551783 -2.09843e-44)
(-0.000781459 -0.00548851 0)
(-0.00077732 -0.00545842 0)
(-0.000773084 -0.00542752 -2.12191e-44)
(-0.000768733 -0.0053958 -2.14672e-44)
(-0.000764248 -0.00536324 -2.13584e-44)
(-0.000759614 -0.0053298 -2.14382e-44)
(-0.000754828 -0.00529539 0)
(-0.00074991 -0.00525991 0)
(-0.000744875 -0.0052232 0)
(-0.000739721 -0.0051851 0)
(-0.000734403 -0.00514545 -2.18763e-44)
(-0.00072886 -0.0051041 -2.19449e-44)
(-0.000723038 -0.00506088 0)
(-0.000716917 -0.00501561 0)
(-0.000710505 -0.00496801 -2.21922e-44)
(-0.000703808 -0.00491773 -2.22852e-44)
(-0.000696791 -0.00486431 2.90451e-46)
(-0.000689378 -0.00480723 8.89813e-53)
(-0.000681469 -0.00474587 0)
(-0.000672976 -0.0046795 0)
(-0.000663812 -0.00460721 -2.26579e-44)
(-0.000653872 -0.0045278 -2.31616e-44)
(-0.000643008 -0.00443968 0)
(-0.000631021 -0.00434075 0)
(-0.000617652 -0.00422815 -2.29935e-44)
(-0.000602558 -0.00409801 -2.37789e-44)
(-0.000585385 -0.00394486 -2.40044e-44)
(-0.000565991 -0.00376103 -2.43275e-44)
(-0.000544753 -0.00353439 -2.35867e-44)
(-0.000527726 -0.00323032 -2.641e-44)
(-0.000553045 -0.00272153 -2.70745e-44)
(-0.000662468 -0.00172377 -2.07215e-44)
(-0.000776787 7.63275e-05 -9.05434e-45)
(-0.000746387 0.0027828 2.17344e-44)
(-0.000510485 0.00625793 0)
(-5.80427e-05 0.0102937 5.49824e-45)
(-4.19645e-05 0.0151773 -2.54235e-44)
(0.00202907 0.0192593 -2.15506e-44)
(-3.59146e-05 0.0249746 0)
(0.00560176 0.0274175 2.15794e-43)
(0.000305916 0.031327 5.83833e-51)
(0.00945046 0.0297135 -5.98102e-43)
(-0.000973206 0.032083 -4.68653e-43)
(0.0110812 0.0294234 0)
(-0.00108957 0.0307234 2.49855e-43)
(0.0112073 0.026964 -2.92859e-48)
(-0.00241755 0.0287803 3.32531e-43)
(0.0092611 0.0285732 -2.38883e-44)
(-0.0108294 0.0432279 4.71465e-43)
(0.0183801 0.0441088 3.83802e-43)
(0.00228222 0.0342963 6.21195e-43)
(0.0194032 0.0127727 1.27176e-43)
(-0.000540814 -0.00441034 -3.44545e-43)
(0.00199539 -0.010199 -3.10263e-43)
(-0.00244401 -0.0137087 5.22964e-44)
(-0.00038471 -0.0168661 -3.44094e-44)
(-0.00413756 -0.0174221 -3.20055e-43)
(-0.00290892 -0.014949 -2.27026e-43)
(-0.00468186 -0.00949021 2.04271e-43)
(-0.00199057 -0.00344245 7.78677e-44)
(-0.00296734 0.00364065 -4.59795e-44)
(-0.000213232 0.0105065 7.87765e-44)
(-0.000187725 0.0167977 -1.74075e-43)
(0.00201225 0.0218335 -2.02534e-43)
(0.00245652 0.0253977 -2.35057e-43)
(0.00400515 0.0270437 -4.99469e-43)
(0.00425055 0.0267886 1.29438e-45)
(0.00525379 0.0243288 -5.18228e-44)
(0.0044529 0.0207122 -2.82151e-43)
(0.0048002 0.0161627 7.01472e-46)
(0.00296578 0.0123127 3.88278e-45)
(0.00354044 0.00871819 1.12337e-44)
(0.00112863 0.00711438 1.86503e-43)
(0.00239309 0.00650343 4.18611e-44)
(0.000269011 0.00825356 4.30401e-45)
(0.00122597 0.012491 2.81592e-43)
(0.000437164 0.0196658 2.96044e-45)
(0.00140068 0.0305196 -1.41629e-43)
(0.000447738 0.046948 -2.3081e-52)
(0.0049361 0.0650777 -3.83732e-43)
(0.00765106 0.0831166 -3.02101e-43)
(0.00775681 0.106964 -3.53021e-43)
(0.00894912 0.138927 -1.18705e-42)
(0.0281269 0.163815 3.20221e-51)
(-0.00437313 0.219681 2.09086e-42)
(0.0809503 0.220289 4.23286e-43)
(0.0549799 0.251519 2.86897e-43)
(0.0622876 0.491623 3.02134e-42)
(0.237346 0.406789 -9.38199e-51)
(0.140488 0.508767 -7.62471e-42)
(0.144396 0.558678 -3.14849e-42)
(0.125112 0.502154 -2.31187e-42)
(0.103471 0.388733 -2.96298e-42)
(0.0699745 0.284373 3.10724e-51)
(0.0496957 0.208722 6.30599e-43)
(0.0371756 0.151194 -3.07264e-44)
(0.0268706 0.106451 -4.28493e-44)
(0.0178061 0.0751291 -2.10773e-44)
(0.0112958 0.0565442 3.21085e-44)
(0.00866094 0.0450963 5.3204e-44)
(0.00658635 0.0371021 1.29708e-43)
(0.00531318 0.0312561 7.02556e-44)
(0.00468323 0.0263538 5.73738e-44)
(0.00398569 0.0219195 1.35152e-43)
(0.00325975 0.0180808 6.69747e-44)
(0.00235041 0.0151352 7.05442e-44)
(0.00237317 0.0123381 6.08322e-44)
(0.0019562 0.00939848 7.04936e-44)
(0.00143342 0.00668385 6.57791e-44)
(0.00103619 0.00425042 0)
(0.000740446 0.00193162 0)
(0.000445739 -0.000361481 2.97526e-52)
(0.000118256 -0.00257783 0)
(-0.000301096 -0.00455482 0)
(-0.000537167 -0.00635571 0)
(-0.000824647 -0.00804618 0)
(-0.00102641 -0.00968462 0)
(-0.00124297 -0.0113098 -2.97815e-45)
(-0.00151868 -0.0128436 0)
(-0.00173286 -0.0142737 0)
(-0.00197037 -0.0156073 0)
(-0.00211123 -0.0169313 0)
(-0.00228738 -0.0182779 0)
(-0.00250259 -0.0195675 -2.60002e-45)
(-0.00272971 -0.0207338 9.10337e-44)
(-0.0028551 -0.0218378 9.36236e-44)
(-0.00302006 -0.0228574 -1.37583e-45)
(-0.00320558 -0.0236584 -1.47154e-45)
(-0.00327865 -0.0242247 9.4952e-44)
(-0.00335929 -0.0244732 9.54321e-44)
(-0.003437 -0.02417 0)
(-0.00353394 -0.0229137 8.34107e-45)
(-0.00361133 -0.0200808 0)
(-0.00370653 -0.0147579 -5.0707e-44)
(-0.00355929 -0.00595674 -8.81292e-44)
(-0.00294284 0.00712601 -2.71978e-44)
(-0.00121589 0.0239255 2.71947e-44)
(0.00306508 0.0386965 -9.44503e-45)
(0.0234509 0.0457176 -3.82665e-43)
(0.000882424 -0.0120433 4.97937e-45)
(0.00110953 -0.0171769 0)
(0.00117979 -0.0198126 2.3076e-46)
(0.00117206 -0.020221 0)
(0.0010985 -0.0187403 0)
(0.000963774 -0.0155746 0)
(0.000782498 -0.0108698 0)
(0.000605892 -0.00471379 0)
(0.000269803 0.00247732 0)
(0.000141266 0.0102449 0)
(3.23122e-05 0.0183174 0)
(-2.88101e-05 0.0267043 -2.96781e-47)
(-7.14032e-05 0.0353002 3.06231e-49)
(-0.000105238 0.0440199 4.1241e-51)
(-0.000136534 0.0528031 -2.36284e-49)
(-0.000166308 0.0616081 -5.13784e-50)
(-0.000194302 0.0704046 0)
(-0.000219766 0.0791693 0)
(-0.00024221 0.0878838 -3.59697e-52)
(-0.00026152 0.0965331 -8.5031e-52)
(-0.000277894 0.105105 -3.07617e-50)
(-0.000291675 0.11359 1.61993e-50)
(-0.000303221 0.121981 0)
(-0.000312844 0.13027 -4.09765e-51)
(-0.000320759 0.138453 0)
(-0.000327116 0.146524 1.10284e-52)
(-0.000332017 0.154479 1.20266e-52)
(-0.000335531 0.16231 0)
(-0.000337719 0.170014 -1.72058e-53)
(-0.000338641 0.177583 -1.81421e-53)
(-0.000338356 0.185012 0)
(-0.000336928 0.192294 0)
(-0.000334415 0.199421 0)
(-0.000330876 0.206387 0)
(-0.000326364 0.213184 0)
(-0.000320927 0.219803 0)
(-0.000314606 0.226238 0)
(-0.000307439 0.232478 0)
(-0.000299462 0.238515 0)
(-0.000290697 0.244341 0)
(-0.000281177 0.249946 0)
(-0.000270929 0.255322 0)
(-0.000259975 0.26046 0)
(-0.000248341 0.26535 0)
(-0.000236055 0.269984 0)
(-0.000223144 0.274353 0)
(-0.000209639 0.27845 0)
(-0.000195567 0.282265 0)
(-0.000180964 0.285792 0)
(-0.00016587 0.289024 0)
(-0.000150317 0.291953 0)
(-0.00013435 0.294574 0)
(-0.00011801 0.296881 0)
(-0.000101344 0.298869 0)
(-8.43962e-05 0.300535 0)
(-6.72154e-05 0.301874 0)
(-4.98526e-05 0.302884 0)
(-3.23562e-05 0.303562 0)
(-1.47745e-05 0.303906 0)
(2.84075e-06 0.303917 0)
(2.04414e-05 0.303594 0)
(3.79827e-05 0.302938 0)
(5.54168e-05 0.30195 0)
(7.27043e-05 0.300632 0)
(8.98045e-05 0.298987 0)
(0.000106679 0.297019 0)
(0.000123298 0.294731 0)
(0.000139632 0.292128 0)
(0.000155656 0.289216 0)
(0.000171347 0.286 0)
(0.000186685 0.282487 0)
(0.000201653 0.278684 0)
(0.000216234 0.274597 0)
(0.000230406 0.270235 0)
(0.000244142 0.265604 0)
(0.000257415 0.260714 0)
(0.000270178 0.255573 0)
(0.000282374 0.250189 0)
(0.000293933 0.244572 0)
(0.000304756 0.238729 0)
(0.000314724 0.23267 0)
(0.000323702 0.226404 0)
(0.000331526 0.21994 0)
(0.00033802 0.213288 0)
(0.000343003 0.206456 0)
(0.000346303 0.199454 0)
(0.00034777 0.192291 0)
(0.000347309 0.184977 0)
(0.000344894 0.17752 0)
(0.000340587 0.169928 0)
(0.00033455 0.162209 0)
(0.000327039 0.154369 0)
(0.000318372 0.146414 0)
(0.000308872 0.138347 0)
(0.000298795 0.130172 0)
(0.000288239 0.121891 0)
(0.000277061 0.113505 0)
(0.000264841 0.105018 0)
(0.000250895 0.0964345 0)
(0.000234358 0.0877617 0)
(0.000214344 0.0790116 6.16929e-54)
(0.000190144 0.0702006 -7.32139e-54)
(0.000161398 0.0613512 -4.11098e-52)
(0.000128172 0.052492 -8.09946e-52)
(9.0606e-05 0.0436599 -1.07749e-50)
(4.76873e-05 0.0349014 1.90789e-48)
(-4.27005e-06 0.0262762 0)
(-7.73556e-05 0.0178581 2.54897e-47)
(-0.000189326 0.00972277 -4.70568e-47)
(-0.000322622 0.0018627 8.42912e-47)
(-0.000632575 -0.00538725 3.64055e-47)
(-0.000813225 -0.0115133 -1.05285e-45)
(-0.000983429 -0.0161669 7.45753e-48)
(-0.00112303 -0.0191453 0)
(-0.0011819 -0.0204568 4.70716e-46)
(-0.00118253 -0.0199599 0)
(-0.00111589 -0.0172801 0)
(-0.000890424 -0.0121099 0)
(0.0118679 0.2178 0)
(-0.0856395 0.259843 -5.2787e-44)
(-0.161907 0.19729 -1.2551e-43)
(-0.189971 0.0926871 2.46939e-45)
(-0.178872 0.0486033 0)
(-0.166389 0.0739246 1.09723e-45)
(-0.163132 0.0865092 1.74535e-45)
(-0.151252 0.0564353 0)
(-0.119616 0.0320141 1.16773e-44)
(-0.0763034 0.0227822 1.2861e-44)
(-0.0252848 0.0235069 0)
(0.0312996 0.0312413 2.91343e-45)
(0.0927095 0.0424855 2.72112e-45)
(0.158236 0.0607736 -1.22475e-45)
(0.226253 0.0837937 -1.16386e-45)
(0.297022 0.108575 -2.40451e-45)
(0.370498 0.138087 -2.10986e-46)
(0.444932 0.175889 0)
(0.518625 0.219473 2.58498e-46)
(0.591392 0.266565 -6.73394e-47)
(0.661807 0.326637 -3.24481e-47)
(0.723305 0.405038 1.09061e-47)
(0.772785 0.47864 -3.7902e-47)
(0.823505 0.528956 -6.31038e-46)
(0.878804 0.59628 7.29673e-47)
(0.925336 0.722025 1.13473e-44)
(0.924887 0.892858 0)
(0.885413 0.973849 0)
(0.865875 0.993428 -4.07926e-44)
(0.862873 1.0415 -1.82613e-44)
(0.845727 1.12533 2.89144e-44)
(0.805519 1.23414 -1.14511e-44)
(0.710535 1.35252 0)
(0.586185 1.32759 1.18718e-43)
(0.486021 1.22842 5.66163e-44)
(0.393451 1.1073 0)
(0.296339 0.954351 3.06159e-44)
(0.202376 0.761167 -8.61754e-44)
(-0.00110171 -0.0127066 -2.20105e-45)
(-0.00133483 -0.013021 -8.23955e-45)
(-0.00154543 -0.0133652 -5.5194e-45)
(-0.00169624 -0.0137133 -4.5806e-47)
(-0.00178682 -0.0140789 1.44356e-44)
(-0.00184146 -0.0144016 7.74776e-46)
(-0.0018891 -0.0146768 1.06692e-46)
(-0.00194014 -0.0149041 1.55441e-44)
(-0.00199505 -0.0150852 1.61266e-44)
(-0.00204842 -0.0152207 1.65259e-44)
(-0.00209491 -0.0153149 1.7241e-44)
(-0.0021303 -0.0153751 -1.15313e-48)
(-0.00215267 -0.0154122 8.40066e-47)
(-0.00216385 -0.0154378 1.74083e-44)
(-0.00216786 -0.015461 0)
(-0.002169 -0.0154866 -1.74122e-44)
(-0.00217045 -0.0155154 -1.75555e-44)
(-0.00217379 -0.0155457 1.77152e-44)
(-0.00217924 -0.0155748 1.77563e-44)
(-0.00218614 -0.0156003 0)
(-0.00219348 -0.0156203 -4.23493e-47)
(-0.00220028 -0.0156342 -6.20512e-47)
(-0.0022058 -0.0156425 2.08302e-47)
(-0.00220966 -0.0156461 1.83039e-44)
(-0.00221184 -0.0156467 1.84078e-44)
(-0.00221256 -0.0156458 -7.94317e-48)
(-0.00221221 -0.015645 -9.91425e-48)
(-0.00221126 -0.0156451 -1.39646e-47)
(-0.00221013 -0.0156471 0)
(-0.00220919 -0.0156511 2.41873e-47)
(-0.00220866 -0.0156571 0)
(-0.00220869 -0.0156648 6.11466e-47)
(-0.0022093 -0.0156735 3.0505e-47)
(-0.00221045 -0.0156829 1.90866e-44)
(-0.00221202 -0.0156922 -5.05619e-52)
(-0.0022139 -0.0157008 -1.91462e-44)
(-0.00221594 -0.0157083 -1.91927e-44)
(-0.00221801 -0.0157143 -1.92408e-44)
(-0.00222002 -0.0157184 0)
(-0.00222187 -0.0157205 0)
(-0.0022235 -0.0157205 0)
(-0.00222486 -0.0157182 -1.94441e-44)
(-0.00222593 -0.0157138 -1.94934e-44)
(-0.00222668 -0.0157072 4.89635e-47)
(-0.00222709 -0.0156986 -1.95657e-44)
(-0.00222716 -0.0156881 -1.95845e-44)
(-0.00222687 -0.0156758 6.66787e-47)
(-0.00222622 -0.0156617 -1.95908e-44)
(-0.0022252 -0.0156461 -1.95857e-44)
(-0.00222382 -0.0156289 0)
(-0.0022221 -0.0156103 -1.95872e-44)
(-0.00222007 -0.0155904 1.14093e-46)
(-0.00221776 -0.0155692 1.9639e-44)
(-0.00221523 -0.0155467 -1.96902e-44)
(-0.00221251 -0.0155231 -1.9622e-44)
(-0.00220966 -0.0154984 -1.9835e-44)
(-0.00220668 -0.0154726 -3.98384e-44)
(-0.00220361 -0.0154458 -1.9864e-44)
(-0.00220044 -0.0154179 -2.00823e-44)
(-0.00219715 -0.0153891 -2.01517e-44)
(-0.00219373 -0.0153593 0)
(-0.00219014 -0.0153286 -2.02568e-44)
(-0.00218637 -0.0152969 -2.01466e-44)
(-0.00218241 -0.0152644 0)
(-0.00217825 -0.0152311 -2.03563e-44)
(-0.0021739 -0.0151969 -2.02246e-44)
(-0.00216939 -0.0151619 0)
(-0.00216471 -0.0151261 0)
(-0.00215991 -0.0150896 0)
(-0.002155 -0.0150523 -2.05894e-44)
(-0.00214999 -0.0150144 -4.13238e-44)
(-0.0021449 -0.0149757 -2.07404e-44)
(-0.00213973 -0.0149363 -2.0822e-44)
(-0.00213449 -0.0148962 -2.09028e-44)
(-0.00212919 -0.0148555 1.81195e-46)
(-0.00212381 -0.0148141 -2.10478e-44)
(-0.00211835 -0.0147721 -4.20313e-44)
(-0.00211279 -0.0147295 -2.11569e-44)
(-0.00210711 -0.0146863 -2.11997e-44)
(-0.0021013 -0.0146425 1.9641e-46)
(-0.00209534 -0.0145981 2.12817e-44)
(-0.00208923 -0.0145531 -2.1332e-44)
(-0.00208298 -0.0145075 -2.11788e-44)
(-0.00207661 -0.0144613 0)
(-0.00207016 -0.0144145 0)
(-0.00206364 -0.014367 0)
(-0.0020571 -0.014319 -2.17923e-44)
(-0.00205054 -0.0142703 -2.19119e-44)
(-0.00204397 -0.0142211 0)
(-0.00203737 -0.0141713 -2.21352e-44)
(-0.00203072 -0.0141208 -2.201e-44)
(-0.002024 -0.0140698 0)
(-0.00201718 -0.0140182 0)
(-0.00201023 -0.0139659 0)
(-0.00200315 -0.013913 0)
(-0.00199593 -0.0138594 0)
(-0.00198859 -0.0138052 0)
(-0.00198113 -0.0137502 0)
(-0.00197359 -0.0136946 -2.25035e-44)
(-0.00196598 -0.0136383 -2.28245e-44)
(-0.00195833 -0.0135813 0)
(-0.00195062 -0.0135236 -2.2961e-44)
(-0.00194285 -0.0134652 -2.30194e-44)
(-0.00193501 -0.013406 0)
(-0.00192709 -0.0133461 2.33704e-44)
(-0.00191905 -0.0132854 2.31443e-44)
(-0.00191088 -0.0132239 -2.31719e-44)
(-0.00190256 -0.0131617 2.7484e-46)
(-0.00189408 -0.0130986 2.32229e-44)
(-0.00188543 -0.0130348 -2.32557e-44)
(-0.00187663 -0.0129702 -2.30082e-44)
(-0.0018677 -0.0129047 0)