/*--------------------------------*- C++ -*----------------------------------*\
| =========                 |                                                 |
| \\      /  F ield         | OpenFOAM: The Open Source CFD Toolbox           |
|  \\    /   O peration     | Version:  2.2.1                                 |
|   \\  /    A nd           | Web:      www.OpenFOAM.org                      |
|    \\/     M anipulation  |                                                 |
\*---------------------------------------------------------------------------*/
FoamFile
{
    version     2.0;
    format      ascii;
    class       volScalarField;
    location    "3.5e-05";
    object      alpha1;
}
// * * * * * * * * * * * * * * * * * * * * * * * * * * * * * * * * * * * * * //

dimensions      [0 0 0 0 0 0 0];

internalField   nonuniform List<scalar> 
22464
(
0.992299
0.999964
0.999993
0.999941
0.999831
0.999677
0.999674
0.999674
0.999674
0.999674
0.999732
0.999908
0.999809
0.999708
0.999709
0.999831
0.999779
0.98342
0.740288
0.173348
0.0318964
0.00728219
0.00281493
0.00244464
0.00157751
0.0012731
0.0011434
0.00105645
0.00103377
0.000989341
0.000995716
0.000934728
0.000950346
0.000901352
0.00090071
0.000875204
0.000876393
0.00087437
0.000877634
0.000881617
0.000876636
0.000880614
0.000877263
0.000889796
0.000878703
0.0008974
0.000865521
0.000902394
0.00085636
0.000916259
0.000841823
0.000940332
0.000819604
0.000960947
0.000801321
0.000975636
0.000814159
0.00102824
0.00088426
0.00119406
0.00104043
0.00161461
0.00136695
0.00244411
0.00191994
0.00338168
0.00224092
0.00355974
0.00202004
0.00271332
0.00141289
0.001761
0.00097381
0.00121332
0.00076748
0.00103129
0.000684206
0.00100856
0.000747441
0.0010308
0.000951918
0.00122206
0.00124594
0.00161274
0.00162212
0.00220245
0.00245648
0.00364638
0.00323437
0.00439124
0.00214114
0.00219012
0.000816785
0.000805079
0.000378279
0.000374238
0.000244351
0.0002351
0.000176116
0.000157271
0.000111119
8.98333e-05
6.17794e-05
4.10296e-05
2.38636e-05
1.14672e-05
4.31103e-06
1.14763e-06
1.87381e-07
1.50888e-08
4.11824e-10
2.54471e-12
2.07195e-15
1.41728e-19
5.96471e-24
2.41229e-28
9.03987e-33
3.10712e-37
9.82545e-42
2.87978e-46
7.90077e-51
2.05867e-55
5.23231e-60
1.36459e-64
3.93979e-69
1.3344e-73
5.20347e-78
2.17318e-82
9.13179e-87
3.73298e-91
1.45489e-95
4.9844e-100
1.48979e-104
4.05552e-109
1.03078e-113
2.47371e-118
5.63816e-123
1.22499e-127
2.54445e-132
5.06695e-137
9.70296e-142
1.79235e-146
3.20294e-151
5.55129e-156
9.35493e-161
1.53717e-165
2.47219e-170
3.90929e-175
3.66393e-180
-3.63127e-179
-1.14514e-179
-2.39226e-180
-4.12012e-181
-6.18458e-182
-8.2583e-183
-9.9307e-184
-1.08576e-184
-1.08789e-185
-1.00546e-186
-8.61638e-188
-6.87922e-189
-5.14263e-190
-3.61818e-191
-2.40773e-192
-1.52221e-193
-9.176e-195
-5.2895e-196
-2.92291e-197
-1.55213e-198
-7.9471e-200
-3.94096e-201
-1.90322e-202
-8.99822e-204
-4.18446e-205
-1.92092e-206
-8.7246e-208
-3.92247e-209
-1.74467e-210
-7.66955e-212
-3.32907e-213
-1.42597e-214
-6.0225e-216
-2.50479e-217
-1.0243e-218
-4.11172e-220
-1.61767e-221
-6.23065e-223
-2.34804e-224
-8.65801e-226
-3.12532e-227
-1.10522e-228
-3.8316e-230
-1.30281e-231
-4.34537e-233
-1.42158e-234
-4.5608e-236
-1.43489e-237
-4.42806e-239
-1.34125e-240
-3.99215e-242
-1.16915e-243
-3.37272e-245
-9.59201e-247
-2.69089e-248
-7.44739e-250
-2.03305e-251
-5.47233e-253
-1.45195e-254
-3.79753e-256
-9.7938e-258
-2.49208e-259
-6.26183e-261
-1.55517e-262
-3.82058e-264
-9.28621e-266
-2.23278e-267
-5.30645e-269
-1.24503e-270
-2.88062e-272
-6.56762e-274
-1.47524e-275
-3.26597e-277
-7.13282e-279
-1.53788e-280
-3.27506e-282
-6.89155e-284
-1.43314e-285
-2.94508e-287
-5.97885e-289
-1.19863e-290
-2.37242e-292
-4.636e-294
-8.94393e-296
-1.70378e-297
-3.20566e-299
-5.95845e-301
-1.09434e-302
-1.98639e-304
-3.5641e-306
-6.32114e-308
-1.11294e-309
-1.31669e-311
0
0
0
0
0
0
0
0
0
0
0
0
0
0
0
0
0
0
0
0
0
0
0
0
0
0
0
0
0
0
0
0
0
0
0
0
0
0
0
0
0
0
0
0
0
0
0
0
0
0
0
0
0
0
0
0
0
0
0
0
0
0
0
0
0
0
0
0
0
0
0
0
0
0
0
0
0
0
0
0
0
0
0
0
-6.20953e-311
-3.59479e-309
-2.11568e-307
-1.23144e-305
-7.0845e-304
-4.02747e-302
-2.26228e-300
-1.25551e-298
-6.88352e-297
-3.72859e-295
-1.99574e-293
-1.0558e-291
-5.52179e-290
-2.85515e-288
-1.45938e-286
-7.37193e-285
-3.67911e-283
-1.81334e-281
-8.82154e-280
-4.23346e-278
-2.00367e-276
-9.3519e-275
-4.30526e-273
-1.95577e-271
-8.77242e-270
-3.8877e-268
-1.70333e-266
-7.38098e-265
-3.16338e-263
-1.3404e-261
-5.61265e-260
-2.32132e-258
-9.4784e-257
-3.81957e-255
-1.51879e-253
-5.9593e-252
-2.30776e-250
-8.82299e-249
-3.33119e-247
-1.24223e-245
-4.57495e-244
-1.6635e-242
-5.96791e-241
-2.11065e-239
-7.35197e-238
-2.51999e-236
-8.49184e-235
-2.81036e-233
-9.12934e-232
-2.91001e-230
-9.10044e-229
-2.79202e-227
-8.40321e-226
-2.48075e-224
-7.18193e-223
-2.03834e-221
-5.66964e-220
-1.54524e-218
-4.12712e-217
-1.08076e-215
-2.7776e-214
-7.0164e-213
-1.74538e-211
-4.28484e-210
-1.04039e-208
-2.50322e-207
-5.97645e-206
-1.41673e-204
-3.33296e-203
-7.7688e-202
-1.78971e-200
-4.0623e-199
-9.05297e-198
-1.97336e-196
-4.19108e-195
-8.63899e-194
-1.7218e-192
-3.30623e-191
-6.09537e-190
-1.07541e-188
-1.81031e-187
-2.89933e-186
-4.40517e-185
-6.32984e-184
-8.57133e-183
-1.08941e-181
-1.29368e-180
-1.42786e-179
-1.45585e-178
-1.36217e-177
-1.16099e-176
-8.93995e-176
-6.15821e-175
-3.73861e-174
-1.93306e-173
-7.41444e-173
1.08736e-175
2.01143e-170
1.26632e-165
7.71047e-161
4.57762e-156
2.64147e-151
1.47736e-146
7.98852e-142
4.16608e-137
2.09007e-132
1.00594e-127
4.6304e-123
2.0311e-118
8.45304e-114
3.31822e-109
1.21612e-104
4.06849e-100
1.19301e-95
3.06887e-91
7.52461e-87
1.79936e-82
4.35028e-78
1.1349e-73
3.42686e-69
1.21031e-64
4.69576e-60
1.85839e-55
7.1531e-51
2.61219e-46
8.9275e-42
2.82825e-37
8.24315e-33
2.20197e-28
5.43892e-24
1.28776e-19
1.9202e-15
2.40944e-12
3.96237e-10
1.46987e-08
1.8406e-07
1.13323e-06
4.27211e-06
1.13908e-05
2.3742e-05
4.08778e-05
6.1651e-05
8.96347e-05
0.000110898
0.000156918
0.000175863
0.000235022
0.000244189
0.000372728
0.000376187
0.000797388
0.000806291
0.00216588
0.00211329
0.00437834
0.00321071
0.00365978
0.00247307
0.00221561
0.00162681
0.00161966
0.00124702
0.00122446
0.000949114
0.00103184
0.000745671
0.00101009
0.00068245
0.00103011
0.000765994
0.00121717
0.000973389
0.00177088
0.00141154
0.00272747
0.00200932
0.00356309
0.00220499
0.00334479
0.00186751
0.00239199
0.00132252
0.00157589
0.00101005
0.0011706
0.000864404
0.00101493
0.000805473
0.000972971
0.000803331
0.000971378
0.00082606
0.000960167
0.000847637
0.00093428
0.000854915
0.000908945
0.000854553
0.000884843
0.000851166
0.000877406
0.000856121
0.000881237
0.00086334
0.000885642
0.000864332
0.00087467
0.000858468
0.000869883
0.000861008
0.000876765
0.000879108
0.000912454
0.000936601
0.000985572
0.00104563
0.00110027
0.00121413
0.00130811
0.00145198
0.00168888
0.001833
0.00283677
0.00299353
0.00967293
0.0427008
0.32473
0.877803
0.996697
0.999856
0.999751
0.999709
0.999868
0.999861
0.999652
0.999645
0.999657
0.999669
0.999653
0.999653
0.999694
0.999936
0.999922
0.995795
0
0
0
0
0
0
0
0
0
0
0
0
0
0
0
0
0
0
0
0
0
0
0
0
0
0
0
0
0
0
0
0
0
0
0
0
0
0
0
0
0
0
0
0
0
0
0
0
0
0
0
0
0
0
0
0
0
0
0
0
0
0
0
0
0
0
0
0
0
0
0
0
0
0
0
0
0
0
0
0
0
0
0
0
0
0
0
0
0
0
0
0
0
0
0
0
0
0
0
0
0
0
0
0
0
0
0
0
0
0
0
0
0
0
0
0
0
0
0.944878
0.921514
0.920009
0.90345
0.882072
0.863368
0.877867
0.87992
0.84938
0.808086
0.740155
0.680628
0.643396
0.669617
0.719096
0.78212
0.845672
0.873014
0.926091
0.943936
0.968153
0.980367
0.971655
0.993074
0.998864
0.995543
0.993696
0.996789
0.999325
0.999913
0.999988
0.99998
0.999943
0.999864
0.99985
0.999817
0.999574
0.994542
0
0
0
0
0
0
0
0
0
0
0
0
0
0
0
0
0
0
0
0
0
0
0
0
0
0
0
0
0
0
0
0
0
0
0
0
0
-2.09375e-311
-1.35581e-309
-8.09084e-308
-4.76874e-306
-2.77711e-304
-1.59784e-302
-9.08195e-301
-5.09911e-299
-2.8279e-297
-1.54911e-295
-8.38186e-294
-4.47952e-292
-2.3646e-290
-1.23293e-288
-6.35013e-287
-3.23073e-285
-1.62358e-283
-8.0585e-282
-3.94975e-280
-1.91131e-278
-9.12981e-277
-4.30434e-275
-2.0028e-273
-9.19731e-272
-4.16878e-270
-1.86527e-268
-8.24027e-267
-3.59492e-265
-1.54903e-263
-6.59323e-262
-2.77218e-260
-1.15135e-258
-4.72301e-257
-1.91333e-255
-7.65347e-254
-3.02252e-252
-1.17837e-250
-4.53499e-249
-1.72284e-247
-6.46079e-246
-2.39155e-244
-8.73739e-243
-3.14997e-241
-1.12026e-239
-3.92855e-238
-1.35776e-236
-4.62201e-235
-1.54878e-233
-5.1054e-232
-1.65465e-230
-5.26977e-229
-1.64848e-227
-5.06291e-226
-1.52603e-224
-4.5124e-223
-1.30845e-221
-3.71912e-220
-1.03583e-218
-2.82593e-217
-7.55003e-216
-1.97523e-214
-5.06079e-213
-1.27033e-211
-3.12609e-210
-7.54949e-209
-1.79163e-207
-4.18515e-206
-9.64069e-205
-2.19413e-203
-4.94209e-202
-1.10301e-200
-2.44036e-199
-5.34885e-198
-1.15941e-196
-2.47838e-195
-5.20584e-194
-1.07015e-192
-2.14381e-191
-4.16775e-190
-7.83154e-189
-1.417e-187
-2.45979e-186
-4.08227e-185
-6.45452e-184
-9.6879e-183
-1.37517e-181
-1.8385e-180
-2.30446e-179
-2.69408e-178
-2.91977e-177
-2.9122e-176
-2.64932e-175
-2.1733e-174
-1.58331e-173
-1.00262e-172
-5.34078e-172
-2.26269e-171
-6.74585e-171
-6.97051e-171
1.22978e-169
6.05857e-165
2.70118e-160
1.17444e-155
4.96756e-151
2.03949e-146
8.11089e-142
3.11861e-137
1.1572e-132
4.13645e-128
1.42193e-123
4.69268e-119
1.48421e-114
4.49066e-110
1.29729e-105
3.57103e-101
9.34545e-97
2.31934e-92
5.44267e-88
1.20356e-83
2.49856e-79
4.84771e-75
8.74354e-71
1.45651e-66
2.2233e-62
3.07896e-58
3.81815e-54
4.16051e-50
3.86553e-46
2.89786e-42
1.55938e-38
4.51922e-35
1.09465e-31
9.52502e-28
1.2442e-23
2.20742e-20
6.2917e-18
4.30086e-16
1.03721e-14
1.198e-13
8.21775e-13
3.86519e-12
1.34471e-11
3.46375e-11
6.75826e-11
1.48944e-10
4.142e-09
8.92345e-08
7.84306e-07
4.55984e-06
2.09e-05
3.31162e-05
7.90656e-05
8.07095e-05
0.000207195
0.000163629
0.000588354
0.000408185
0.00137582
0.000659634
0.00147602
0.000877022
0.00103665
0.000783822
0.000676523
0.000432988
0.000365923
0.000188276
0.000172699
7.95019e-05
0.000100248
6.53536e-05
0.000161669
0.000116094
0.000319189
0.000226326
0.000593215
0.000404809
0.00106361
0.000631196
0.00153228
0.000708674
0.00142235
0.000624454
0.000932556
0.000437363
0.000561537
0.000285245
0.000341108
0.000175739
0.000206736
0.000108274
0.000132071
7.32663e-05
9.27529e-05
5.61616e-05
7.74839e-05
4.5875e-05
6.66111e-05
3.64776e-05
4.80803e-05
2.49386e-05
3.24489e-05
2.03326e-05
2.20423e-05
1.61677e-05
1.45384e-05
1.19108e-05
1.05372e-05
1.09325e-05
1.44066e-05
1.33837e-05
1.34357e-05
1.40061e-05
1.65047e-05
1.97261e-05
2.14307e-05
2.00913e-05
2.00485e-05
2.19981e-05
2.27932e-05
3.2834e-05
4.63451e-05
5.96995e-05
0.00010588
0.000127623
0.000374278
0.000175753
0.000592476
0.00150999
0.00952261
0.312825
0.871902
0.995361
0.999859
0.999908
0.999893
0.99993
0.999953
0.999957
0.999962
0.999967
0.999973
0.999977
0.999983
0.999995
0.999994
0.999996
0.999999
0.999993
0.999983
0.999974
0.999966
0.999961
0.999958
0.999959
0.999962
0.999946
0.999901
0.999901
0.999894
0.999553
0.973757
0.676727
0.103782
0.00282614
0.00105386
0.000286392
0.000199711
0.000316602
0.000128741
9.74604e-05
9.80882e-05
4.41663e-05
2.2456e-05
1.48069e-05
1.41689e-05
1.38715e-05
1.49523e-05
1.57317e-05
1.79808e-05
1.81336e-05
1.67655e-05
1.43282e-05
1.2169e-05
1.883e-05
2.20316e-05
2.8786e-05
2.21995e-05
2.62991e-05
1.8616e-05
2.64296e-05
2.9811e-05
4.09992e-05
3.34036e-05
5.14965e-05
3.48913e-05
5.65015e-05
4.03739e-05
6.98364e-05
5.85085e-05
0.000111491
9.78257e-05
0.000195888
0.000173264
0.00034237
0.000291998
0.00057263
0.000451596
0.000950748
0.000641724
0.00143435
0.000718831
0.00151889
0.000631448
0.00104462
0.00039908
0.00057982
0.000220642
0.000310301
0.000111662
0.00015465
6.25752e-05
9.63108e-05
7.83465e-05
0.000168804
0.000186492
0.000363667
0.000432835
0.000673549
0.000782678
0.00103253
0.000879553
0.00146327
0.000660371
0.00137667
0.000416304
0.000592945
0.000165678
0.000209025
8.13618e-05
7.97018e-05
3.35123e-05
2.12961e-05
4.70491e-06
8.33678e-07
9.72679e-08
4.5704e-09
1.5236e-10
6.73917e-11
3.47633e-11
1.36535e-11
3.97204e-12
8.54346e-13
1.25974e-13
1.10391e-14
4.65353e-16
6.93212e-18
2.46906e-20
1.40755e-23
1.08007e-27
1.25133e-31
5.38191e-35
1.933e-38
3.58977e-42
4.76477e-46
5.10246e-50
4.66237e-54
3.74692e-58
2.69859e-62
1.76435e-66
1.05751e-70
5.85594e-75
3.01507e-79
1.4511e-83
6.55735e-88
2.79276e-92
1.12482e-96
4.29685e-101
1.56075e-105
5.40263e-110
1.78587e-114
5.64797e-119
1.71208e-123
4.98309e-128
1.39492e-132
3.76196e-137
9.79194e-142
2.46438e-146
6.00841e-151
1.42206e-155
3.27459e-160
7.35421e-165
1.61519e-169
3.47146e-174
5.51364e-179
-2.84677e-177
-1.25298e-177
-3.29966e-178
-6.6059e-179
-1.09198e-179
-1.55296e-180
-1.94846e-181
-2.19441e-182
-2.24683e-183
-2.11215e-184
-1.83748e-185
-1.4891e-186
-1.13053e-187
-8.08089e-189
-5.46304e-190
-3.508e-191
-2.14847e-192
-1.26015e-193
-7.10785e-195
-3.87188e-196
-2.04585e-197
-1.05324e-198
-5.30618e-200
-2.62652e-201
-1.28164e-202
-6.1791e-204
-2.9465e-205
-1.38946e-206
-6.47273e-208
-2.97403e-209
-1.34549e-210
-5.98393e-212
-2.61242e-213
-1.11824e-214
-4.68872e-216
-1.92435e-217
-7.72726e-219
-3.03516e-220
-1.16616e-221
-4.38383e-223
-1.613e-224
-5.81162e-226
-2.05143e-227
-7.09756e-229
-2.4079e-230
-8.01329e-232
-2.61695e-233
-8.39034e-235
-2.64227e-236
-8.17795e-238
-2.48922e-239
-7.45629e-241
-2.19938e-242
-6.39185e-244
-1.83099e-245
-5.17123e-247
-1.4402e-248
-3.95561e-250
-1.07153e-251
-2.86326e-253
-7.54881e-255
-1.9642e-256
-5.04581e-258
-1.2801e-259
-3.20785e-261
-7.9407e-263
-1.94146e-264
-4.68711e-266
-1.11698e-267
-2.62667e-269
-6.09374e-271
-1.39455e-272
-3.1483e-274
-7.0128e-276
-1.54168e-277
-3.34576e-279
-7.16915e-281
-1.51687e-282
-3.16903e-284
-6.53684e-286
-1.33115e-287
-2.67586e-289
-5.30941e-291
-1.03988e-292
-2.01061e-294
-3.83847e-296
-7.23687e-298
-1.34763e-299
-2.47898e-301
-4.50497e-303
-8.08824e-305
-1.43472e-306
-2.51422e-308
-4.41696e-310
-5.51844e-312
0
0
0
0
0
0
0
0
0
0
0
0
0
0
0
0
0
0
0
0
0
0
0
0
0
0
0
0
0
0
0
0
0
0
0
0
0
0
0
0
0
0
0
0
0
0
0
0
0
0
0
0
0
0
0
0
0
0
0
0
0
0
0
0
0
0
0
0
0
0
0
0
0
0
0
0
0
0
0
0
0
0
0
0
0
0
0
0
0
0
0
0
0
0
0
0
0
0
0
0
0
0
0
0
0
0
0
0
0
0
0
0
0
0
0
0
0
0
0
0
0
0
0
0
0
0
0
0
0
0
0
0
0
0
0
0
0
0
0
0
0
0
0
0
0
0
0
0
0
0
0
0
0
0
0
0.99999
0.999988
0.999984
0.999947
0.999739
0.999549
0.999006
0.998332
0.996896
0.993547
0.992937
0.992498
0.994611
0.996815
0.998633
0.999212
0.999588
0.999871
0.999762
0.999938
0.999979
0.999995
0.999998
0.999998
0.999997
0.999997
0.999996
0.999995
0.999996
0.999998
0.999999
1
1
1
0.999999
0.999998
0
0
0
0
0
0
0
0
0
0
0
0
0
0
0
0
0
0
0
0
0
0
0
0
0
0
0
0
0
0
0
0
0
0
0
0
0
0
0
0
0
0
0
0
0
0
0
0
0
0
0
0
0
0
0
0
0
0
0
0
0
0
0
0
0
0
0
0
0
0
0
0
0
0
0
0
0
0
0
0
0
0
0
0
0
0
0
0
0
0
0
0
0
0
0
0
0
0
0
0
0
0
0
0
0
0
0
0
0
0
0
0
0
0
0
0
1
1
1
1
1
0.999999
0.999999
0.999998
0.999995
0.999992
0.999991
0.999987
0.999328
0.965641
0.634135
0.089761
0.00324361
0.000113419
1.18243e-05
1.98266e-06
2.24504e-07
8.88963e-08
6.25525e-08
3.57429e-08
1.10676e-08
1.54224e-09
8.952e-10
2.41166e-10
1.76994e-10
1.14545e-10
7.45107e-11
4.69764e-11
3.33176e-11
3.39202e-11
8.26385e-11
1.24065e-10
1.5463e-10
1.031e-09
1.70529e-09
1.91834e-09
7.40716e-10
1.12586e-09
5.68725e-10
1.14055e-09
1.505e-09
1.38649e-09
7.25457e-10
4.30805e-10
2.45584e-10
2.17791e-10
2.3238e-10
1.92243e-10
8.41474e-11
7.82354e-11
7.06751e-09
2.97272e-07
2.39404e-06
1.02112e-05
1.89213e-05
4.53571e-05
5.56289e-05
0.00010559
9.02544e-05
0.000158589
0.000120285
0.000149925
7.57425e-05
9.07974e-05
2.89697e-05
2.76636e-05
4.83479e-06
1.75178e-06
7.13766e-08
1.18043e-09
2.63126e-09
2.08546e-08
3.48029e-07
3.35006e-06
1.37552e-05
3.85018e-05
7.41953e-05
0.000120089
0.000155776
0.000215122
0.000186251
0.000247913
0.000166651
0.000127621
3.99828e-05
4.07631e-05
1.03989e-05
7.68717e-06
1.44057e-06
2.79544e-07
3.33183e-08
1.58546e-09
1.68941e-11
2.6059e-14
1.80147e-18
8.55606e-18
5.64484e-18
1.66517e-18
3.32409e-19
7.60325e-20
1.328e-20
3.3154e-21
6.69559e-22
9.27703e-23
7.5268e-24
5.18701e-25
2.9336e-26
1.09211e-27
1.94994e-29
1.17463e-31
1.67546e-34
4.08477e-38
3.33581e-42
2.63405e-46
2.03064e-50
1.53281e-54
1.12796e-58
8.03476e-63
5.50315e-67
3.60967e-71
2.26384e-75
1.35751e-79
7.78976e-84
4.2823e-88
2.25775e-92
1.14258e-96
5.55432e-101
2.5954e-105
1.16646e-109
5.04522e-114
2.10126e-118
8.43161e-123
3.26161e-127
1.21706e-131
4.38369e-136
1.52512e-140
5.12866e-145
1.66825e-149
5.25289e-154
1.60219e-158
4.73704e-163
1.3585e-167
3.78132e-172
9.97083e-177
4.00142e-184
-1.06623e-178
-5.34369e-179
-1.7338e-179
-4.4249e-180
-9.47767e-181
-1.76326e-181
-2.91295e-182
-4.33998e-183
-5.89917e-184
-7.3813e-185
-8.56315e-186
-9.26535e-187
-9.39666e-188
-8.97034e-189
-8.09019e-190
-6.91537e-191
-5.61835e-192
-4.34946e-193
-3.21574e-194
-2.27529e-195
-1.54352e-196
-1.00566e-197
-6.30278e-199
-3.80529e-200
-2.21614e-201
-1.24653e-202
-6.77977e-204
-3.56948e-205
-1.82106e-206
-9.01161e-208
-4.32963e-209
-2.02147e-210
-9.17995e-212
-4.05824e-213
-1.74784e-214
-7.33945e-216
-3.0071e-217
-1.20301e-218
-4.70256e-220
-1.79742e-221
-6.7222e-223
-2.46159e-224
-8.83176e-226
-3.10659e-227
-1.07199e-228
-3.63103e-230
-1.20794e-231
-3.94891e-233
-1.26926e-234
-4.01314e-236
-1.24877e-237
-3.82586e-239
-1.1545e-240
-3.43262e-242
-1.00587e-243
-2.90564e-245
-8.27559e-247
-2.3242e-248
-6.4374e-250
-1.75855e-251
-4.73851e-253
-1.25953e-254
-3.3028e-256
-8.54449e-258
-2.18085e-259
-5.49153e-261
-1.36418e-262
-3.34295e-264
-8.08054e-266
-1.92655e-267
-4.53043e-269
-1.05081e-270
-2.40409e-272
-5.42568e-274
-1.20801e-275
-2.65361e-277
-5.75156e-279
-1.23009e-280
-2.59597e-282
-5.40611e-284
-1.11096e-285
-2.25297e-287
-4.50893e-289
-8.90603e-291
-1.73627e-292
-3.34125e-294
-6.34736e-296
-1.19044e-297
-2.20441e-299
-4.03071e-301
-7.27785e-303
-1.29772e-304
-2.28526e-306
-3.97476e-308
-6.7287e-310
-9.84972e-312
0
0
0
0
0
0
0
0
0
0
0
0
0
0
0
0
0
0
0
0
0
0
0
0
0
0
0
0
0
0
0
0
0
0
0
0
0
0
0
0
0
0
0
0
0
0
0
0
0
0
0
0
0
0
0
0
0
0
0
0
0
0
0
0
0
0
0
0
-3.27259e-311
-2.05144e-309
-1.23315e-307
-7.33373e-306
-4.30712e-304
-2.49808e-302
-1.43078e-300
-8.09231e-299
-4.51947e-297
-2.4923e-295
-1.35703e-293
-7.29534e-292
-3.8722e-290
-2.02919e-288
-1.04989e-286
-5.3631e-285
-2.70476e-283
-1.34666e-281
-6.61867e-280
-3.21095e-278
-1.53751e-276
-7.26594e-275
-3.38872e-273
-1.55966e-271
-7.0836e-270
-3.17465e-268
-1.40393e-266
-6.12638e-265
-2.63799e-263
-1.12089e-261
-4.69985e-260
-1.94463e-258
-7.94e-257
-3.19914e-255
-1.27194e-253
-4.99019e-252
-1.93186e-250
-7.37972e-249
-2.78164e-247
-1.03455e-245
-3.79645e-244
-1.37452e-242
-4.90939e-241
-1.72961e-239
-6.00934e-238
-2.05854e-236
-6.95048e-235
-2.31231e-233
-7.57683e-232
-2.44431e-230
-7.75989e-229
-2.42315e-227
-7.4389e-226
-2.24395e-224
-6.64741e-223
-1.93275e-221
-5.51215e-220
-1.54106e-218
-4.22083e-217
-1.1318e-215
-2.9693e-214
-7.61653e-213
-1.90891e-211
-4.67135e-210
-1.11537e-208
-2.59655e-207
-5.88917e-206
-1.30031e-204
-2.79256e-203
-5.82846e-202
-1.18118e-200
-2.32213e-199
-4.42437e-198
-8.16146e-197
-1.45603e-195
-2.50935e-194
-4.17264e-193
-6.68572e-192
-1.03077e-190
-1.52682e-189
-2.16923e-188
-2.95073e-187
-3.83528e-186
-4.75289e-185
-5.60216e-184
-6.26343e-183
-6.62213e-182
-6.59781e-181
-6.16994e-180
-5.39036e-179
-4.37542e-178
-3.27801e-177
-2.24824e-176
-1.39708e-175
-7.75873e-175
-3.77755e-174
-1.5661e-173
-5.26292e-173
-1.29981e-172
-1.76501e-172
2.2825e-172
1.11374e-167
3.88994e-163
1.31783e-158
4.32779e-154
1.37678e-149
4.23984e-145
1.263e-140
3.63659e-136
1.01139e-131
2.7151e-127
7.03079e-123
1.75509e-118
4.22103e-114
9.77504e-110
2.1785e-105
4.66984e-101
9.62285e-97
1.90497e-92
3.62033e-88
6.59999e-84
1.15296e-79
1.92787e-75
3.0828e-71
4.71386e-67
6.90239e-63
9.71635e-59
1.32376e-54
1.75849e-50
2.28886e-46
2.91173e-42
3.58535e-38
1.50484e-34
1.07225e-31
1.79366e-29
1.00392e-27
2.68755e-26
4.7699e-25
7.00771e-24
8.73816e-23
6.38996e-22
3.20512e-21
1.29953e-20
7.53509e-20
3.35183e-19
1.6929e-18
5.67412e-18
8.47642e-18
1.77105e-18
2.56377e-14
1.65701e-11
1.53537e-09
3.19535e-08
2.67495e-07
1.39502e-06
7.48727e-06
1.01947e-05
4.05146e-05
3.91051e-05
0.000127158
0.000165287
0.000247551
0.000185904
0.000215999
0.000155634
0.000120436
7.46865e-05
3.89936e-05
1.40207e-05
3.46902e-06
3.47246e-07
1.4752e-08
8.70751e-10
1.07191e-09
1.0884e-07
2.3061e-06
5.74094e-06
3.06153e-05
3.09435e-05
9.53622e-05
7.80605e-05
0.000152835
0.000120233
0.000158818
8.78009e-05
0.000103772
5.35085e-05
4.41411e-05
1.81885e-05
1.0151e-05
2.34897e-06
3.58318e-07
9.13905e-09
3.26575e-10
8.93832e-10
3.03733e-09
4.75195e-09
4.62042e-09
4.59909e-09
1.00009e-08
5.89788e-09
8.81658e-10
6.46323e-11
5.69038e-11
6.4856e-11
6.43791e-11
4.95878e-11
2.38539e-11
6.87753e-12
3.8834e-12
1.97782e-11
1.24533e-10
1.16127e-10
4.86745e-11
2.634e-11
3.24728e-11
5.06899e-11
8.11597e-11
1.25724e-10
1.89245e-10
2.79155e-10
3.96864e-10
5.08115e-10
5.80753e-10
6.18723e-10
6.52367e-10
1.50395e-09
1.26371e-08
4.99867e-08
3.60934e-06
1.80956e-05
0.00063312
0.0234215
0.386595
0.897847
0.996362
0.999961
0.999986
0.999986
0.999991
0.999996
0.999998
0.999999
0.999999
1
1
1
1
1
1
1
1
1
1
0.999999
0.999998
0.999996
0.999995
0.999997
0.999999
1
1
1
1
1
1
1
1
1
1
1
1
1
1
1
1
1
1
1
1
1
1
1
1
1
1
1
1
1
1
0.999996
0.999281
0.965438
0.6339
0.0905412
0.00361246
8.73457e-05
1.14185e-06
5.09391e-08
1.70382e-08
4.05547e-09
8.83863e-10
5.52162e-10
5.53028e-10
5.3028e-10
4.25947e-10
3.51491e-10
2.35142e-10
1.50174e-10
9.42258e-11
5.80797e-11
3.5151e-11
2.08126e-11
1.20187e-11
6.77866e-12
3.72035e-12
1.98662e-12
1.03678e-12
5.25959e-13
2.58414e-13
1.22605e-13
5.69334e-14
2.56832e-14
1.12803e-14
4.80246e-15
1.99631e-15
8.179e-16
3.40821e-16
1.46413e-16
7.00644e-17
4.20034e-17
3.37609e-17
3.2202e-17
1.22407e-16
1.11993e-13
2.19835e-11
9.36988e-10
1.46996e-08
8.00887e-08
3.14965e-07
6.07209e-07
1.30409e-06
1.42605e-06
2.33557e-06
1.92476e-06
1.79209e-06
6.80415e-07
5.5574e-07
7.73289e-08
3.27014e-08
1.58079e-09
8.74279e-12
3.68762e-14
3.90667e-14
6.32516e-12
5.42234e-10
1.38777e-08
1.2852e-07
5.87546e-07
1.62382e-06
3.1982e-06
5.40353e-06
8.44108e-06
1.24047e-05
1.28207e-05
1.38342e-05
7.74102e-06
2.2898e-06
2.49443e-07
7.87407e-08
3.51145e-09
5.98086e-11
5.17458e-13
3.94714e-15
4.29769e-17
1.24324e-18
2.02517e-19
1.12517e-19
5.1104e-20
1.77898e-20
5.42311e-21
1.53508e-21
4.03908e-22
9.54463e-23
1.95037e-23
3.33885e-24
4.64715e-25
5.08589e-26
4.20715e-27
2.50601e-28
1.00707e-29
2.48014e-31
3.40828e-33
3.01222e-35
1.08495e-37
7.49253e-41
6.39815e-45
4.04718e-49
2.62988e-53
1.79284e-57
1.29262e-61
9.66964e-66
7.28783e-70
5.40836e-74
3.89979e-78
2.71515e-82
1.8209e-86
1.1758e-90
7.31393e-95
4.37463e-99
2.48894e-103
1.35168e-107
7.02246e-112
3.49556e-116
1.66904e-120
7.65308e-125
3.37404e-129
1.4321e-133
5.85945e-138
2.3138e-142
8.82825e-147
3.25801e-151
1.16405e-155
4.03012e-160
1.35315e-164
4.4094e-169
1.39546e-173
3.77202e-178
-2.6156e-179
-3.64364e-179
-1.75268e-179
-6.06084e-180
-1.69082e-180
-4.0061e-181
-8.30762e-182
-1.53809e-182
-2.57849e-183
-3.95586e-184
-5.60045e-185
-7.36609e-186
-9.05119e-187
-1.04394e-187
-1.13474e-188
-1.16652e-189
-1.13762e-190
-1.05533e-191
-9.33505e-193
-7.89085e-194
-6.38648e-195
-4.95793e-196
-3.69782e-197
-2.65366e-198
-1.83484e-199
-1.22394e-200
-7.88603e-202
-4.91329e-203
-2.96316e-204
-1.73151e-205
-9.812e-207
-5.39639e-208
-2.88266e-209
-1.49675e-210
-7.55922e-212
-3.7159e-213
-1.77902e-214
-8.30002e-216
-3.77579e-217
-1.67571e-218
-7.25901e-220
-3.07083e-221
-1.26921e-222
-5.12752e-224
-2.02563e-225
-7.82833e-227
-2.96077e-228
-1.0963e-229
-3.97564e-231
-1.41249e-232
-4.91824e-234
-1.6789e-235
-5.62035e-237
-1.84568e-238
-5.94741e-240
-1.88106e-241
-5.8411e-243
-1.78124e-244
-5.33573e-246
-1.57044e-247
-4.54262e-249
-1.29167e-250
-3.61121e-252
-9.9289e-254
-2.68526e-255
-7.14484e-257
-1.87069e-258
-4.8205e-260
-1.22276e-261
-3.05368e-263
-7.50954e-265
-1.81878e-266
-4.33907e-268
-1.01984e-269
-2.36188e-271
-5.39066e-273
-1.21271e-274
-2.68951e-276
-5.88096e-278
-1.26804e-279
-2.69626e-281
-5.65407e-283
-1.1694e-284
-2.3856e-286
-4.80064e-288
-9.53019e-290
-1.86655e-291
-3.60703e-293
-6.87802e-295
-1.29424e-296
-2.40346e-298
-4.40514e-300
-7.96923e-302
-1.42311e-303
-2.50873e-305
-4.36618e-307
-7.50426e-309
-1.25282e-310
-1.33556e-312
0
0
0
0
0
0
0
0
0
0
0
0
0
0
0
0
0
0
0
0
0
0
0
0
0
0
0
0
0
0
0
0
0
0
0
0
0
0
0
0
0
0
0
0
0
0
0
0
0
0
0
0
0
0
0
0
0
0
0
0
0
0
0
0
0
0
0
0
0
0
0
0
0
0
0
0
0
0
0
0
0
0
0
0
0
0
0
0
0
0
0
0
0
0
0
0
0
0
0
0
0
0
0
0
0
0
0
0
0
0
0
0
0
0
0
0
0
0
0
0
0
0
0
0
0
0
0
0
0
0
0
0
0
0
0
0
0
0
0
0
0
0
0
0
0
0
0
0
0
0
0
0
0
0
0
0
0
0
0
0
0
0
0
0
0
0
0
0
0
0
0
0
0
0
0
0
-5.34222e-312
-3.62927e-310
-2.20806e-308
-1.33235e-306
-7.93201e-305
-4.66095e-303
-2.70324e-301
-1.54744e-299
-8.74294e-298
-4.87546e-296
-2.68337e-294
-1.45763e-292
-7.81458e-291
-4.13466e-289
-2.15891e-287
-1.11242e-285
-5.65619e-284
-2.83773e-282
-1.4047e-280
-6.86019e-279
-3.30521e-277
-1.57089e-275
-7.36463e-274
-3.4055e-272
-1.55309e-270
-6.98453e-269
-3.09698e-267
-1.35371e-265
-5.83208e-264
-2.47606e-262
-1.03579e-260
-4.26852e-259
-1.73265e-257
-6.92631e-256
-2.72631e-254
-1.05646e-252
-4.02959e-251
-1.51256e-249
-5.58637e-248
-2.02964e-246
-7.25257e-245
-2.54831e-243
-8.80246e-242
-2.98843e-240
-9.96933e-239
-3.26711e-237
-1.05154e-235
-3.32304e-234
-1.0308e-232
-3.13782e-231
-9.37051e-230
-2.74443e-228
-7.88065e-227
-2.21795e-225
-6.11614e-224
-1.65192e-222
-4.36845e-221
-1.13067e-219
-2.86311e-218
-7.09031e-217
-1.71645e-215
-4.06016e-214
-9.37999e-213
-2.11542e-211
-4.65489e-210
-9.98871e-209
-2.08909e-207
-4.25601e-206
-8.4406e-205
-1.62848e-203
-3.05447e-202
-5.56573e-201
-9.84513e-200
-1.68921e-198
-2.80885e-197
-4.52203e-196
-7.04136e-195
-1.0593e-193
-1.53784e-192
-2.15174e-191
-2.89784e-190
-3.75088e-189
-4.65882e-188
-5.5431e-187
-6.30573e-186
-6.84395e-185
-7.07051e-184
-6.93471e-183
-6.43811e-182
-5.63882e-181
-4.64144e-180
-3.57453e-179
-2.56222e-178
-1.69871e-177
-1.0337e-176
-5.7179e-176
-2.83883e-175
-1.243e-174
-4.67487e-174
-1.44446e-173
-3.35547e-173
-4.59462e-173
8.0712e-174
3.59456e-169
1.10534e-164
3.29785e-160
9.54137e-156
2.67477e-151
7.25887e-147
1.90525e-142
4.83164e-138
1.18251e-133
2.78968e-129
6.33552e-125
1.38336e-120
2.90067e-116
5.83448e-112
1.1245e-107
2.07373e-103
3.65131e-99
6.11482e-95
9.84463e-91
1.52713e-86
2.2815e-82
3.28417e-78
4.56583e-74
6.16886e-70
8.20539e-66
1.09851e-61
1.5223e-57
2.2207e-53
3.37309e-49
5.21638e-45
6.07858e-41
8.9886e-38
2.60451e-35
3.05236e-33
2.26123e-31
9.26364e-30
2.31965e-28
3.91268e-27
4.74756e-26
4.35165e-25
3.13561e-24
1.83689e-23
9.01316e-23
3.82162e-22
1.45438e-21
5.15089e-21
1.69796e-20
4.89229e-20
1.0783e-19
1.94701e-19
1.18122e-18
3.88487e-17
3.46569e-15
4.65788e-13
5.45016e-11
3.33261e-09
7.65259e-08
2.37894e-07
2.26561e-06
7.69226e-06
1.37304e-05
1.27023e-05
1.23616e-05
8.40399e-06
5.3855e-06
3.1986e-06
1.63441e-06
5.95058e-07
1.31046e-07
1.43776e-08
5.68989e-10
6.60208e-12
3.98121e-14
4.45119e-14
1.37331e-11
2.26861e-09
4.29409e-08
9.50601e-08
6.37014e-07
7.39027e-07
1.85241e-06
1.90208e-06
2.29298e-06
1.3311e-06
1.23223e-06
5.47696e-07
2.86971e-07
6.96716e-08
1.30659e-08
7.48212e-10
1.48381e-11
5.95612e-14
6.85222e-17
3.03913e-17
3.18812e-17
3.96003e-17
5.78146e-17
2.99492e-16
1.38295e-15
1.5294e-15
1.81909e-15
3.44265e-15
8.10163e-15
1.86069e-14
4.10928e-14
8.75122e-14
1.80738e-13
3.62474e-13
7.08839e-13
1.35221e-12
2.52297e-12
4.58552e-12
8.12157e-12
1.4014e-11
2.3595e-11
3.88617e-11
6.28816e-11
1.00058e-10
1.57192e-10
2.45017e-10
3.62443e-10
4.83802e-10
5.33062e-10
5.29634e-10
4.80187e-10
3.67397e-10
2.96199e-10
3.55997e-10
6.87464e-09
2.5267e-07
1.38501e-05
0.0011472
0.0457264
0.495967
0.931124
0.997819
0.999985
1
1
1
1
1
1
1
1
1
1
1
1
1
1
1
1
1
1
1
1
1
1
1
1
1
1
1
1
1
1
1
1
1
1
1
0.999999
1
1
1
1
0
1
1
1
1
1
1
1
0.999997
0.999407
0.972294
0.67952
0.10787
0.00483426
0.000131028
2.92076e-06
2.45069e-08
3.51624e-10
2.36495e-10
2.36583e-10
3.57594e-10
5.5301e-10
7.447e-10
8.72756e-10
9.25158e-10
7.67004e-10
4.9454e-10
2.88121e-10
1.70502e-10
9.95001e-11
5.74874e-11
3.27013e-11
1.82077e-11
9.89699e-12
5.25629e-12
2.72544e-12
1.37636e-12
6.7836e-13
3.26866e-13
1.5338e-13
6.92522e-14
3.00641e-14
1.25371e-14
5.03587e-15
1.95298e-15
7.29889e-16
2.63718e-16
9.51432e-17
3.83932e-17
2.15744e-17
1.78416e-17
1.74372e-17
1.80188e-17
2.15645e-17
1.9504e-16
2.84285e-14
1.31766e-12
1.89486e-11
1.3005e-10
4.17465e-10
1.07102e-09
1.53763e-09
2.34923e-09
1.74885e-09
1.17298e-09
2.50221e-10
9.43507e-11
3.87679e-12
2.95454e-13
1.15372e-14
9.4231e-15
9.65631e-15
3.26673e-14
1.24267e-12
2.72714e-11
2.7282e-10
1.46415e-09
4.83759e-09
1.13771e-08
2.219e-08
4.23014e-08
7.26562e-08
1.06843e-07
1.12492e-07
1.08438e-07
3.72909e-08
4.66056e-09
1.28563e-10
2.17858e-12
2.23881e-14
1.727e-16
4.23493e-19
1.19034e-20
5.67624e-21
2.26541e-21
6.6487e-22
1.73652e-22
4.55086e-23
1.17921e-23
2.87704e-24
6.45175e-25
1.31214e-25
2.38227e-26
3.77966e-27
5.1083e-28
5.71383e-29
5.11923e-30
3.53485e-31
1.7908e-32
6.21315e-34
1.32978e-35
1.49368e-37
6.99344e-40
1.02685e-42
3.47396e-46
3.74041e-50
3.77542e-54
3.63799e-58
3.38256e-62
3.04733e-66
2.65473e-70
2.22774e-74
1.79474e-78
1.38547e-82
1.0244e-86
7.2587e-91
4.93402e-95
3.22119e-99
2.02171e-103
1.22036e-107
7.08709e-112
3.96084e-116
2.13088e-120
1.10384e-124
5.50827e-129
2.64934e-133
1.22907e-137
5.50408e-142
2.38141e-146
9.96323e-151
4.03403e-155
1.58199e-159
6.01344e-164
2.21749e-168
7.93757e-173
2.74612e-177
6.09072e-182
-7.53871e-180
-4.92921e-180
-2.00321e-180
-6.30725e-181
-1.65957e-181
-3.78903e-182
-7.68093e-183
-1.40444e-183
-2.34337e-184
-3.60022e-185
-5.12953e-186
-6.81783e-187
-8.4955e-188
-9.96649e-189
-1.10481e-189
-1.16093e-190
-1.15962e-191
-1.10382e-192
-1.00354e-193
-8.73172e-195
-7.28442e-196
-5.83642e-197
-4.49802e-198
-3.33912e-199
-2.39079e-200
-1.65301e-201
-1.10489e-202
-7.147e-204
-4.47833e-205
-2.72076e-206
-1.60405e-207
-9.18435e-209
-5.11103e-210
-2.76639e-211
-1.45734e-212
-7.47707e-214
-3.73854e-215
-1.82278e-216
-8.67076e-218
-4.02615e-219
-1.82575e-220
-8.08938e-222
-3.50355e-223
-1.48392e-224
-6.14895e-226
-2.49376e-227
-9.90239e-229
-3.85138e-230
-1.46771e-231
-5.48228e-233
-2.00781e-234
-7.2121e-236
-2.54164e-237
-8.79039e-239
-2.98449e-240
-9.94995e-242