/*--------------------------------*- C++ -*----------------------------------*\
| =========                 |                                                 |
| \\      /  F ield         | OpenFOAM: The Open Source CFD Toolbox           |
|  \\    /   O peration     | Version:  2.2.1                                 |
|   \\  /    A nd           | Web:      www.OpenFOAM.org                      |
|    \\/     M anipulation  |                                                 |
\*---------------------------------------------------------------------------*/
FoamFile
{
    version     2.0;
    format      ascii;
    class       volScalarField;
    location    "3.5e-05";
    object      p_rgh;
}
// * * * * * * * * * * * * * * * * * * * * * * * * * * * * * * * * * * * * * //

dimensions      [1 -1 -2 0 0 0 0];

internalField   nonuniform List<scalar> 
22464
(
2390.04
-406.48
-853.181
-1481.57
-2138.29
-2765.45
-3434.05
-4048.52
-4595.5
-5072.6
-5510.94
-5865.98
-6031.65
-5959.5
-5571.06
-4493.36
-1986.33
2780.52
5064.31
-186.183
-201.216
146.625
118.086
125.43
101.537
86.0896
90.4904
92.2645
95.5164
97.1449
100.635
96.7368
98.8333
94.9739
94.482
92.1603
91.6634
91.3663
91.5754
91.6303
90.8095
90.4263
89.9111
90.2767
88.9594
89.7476
86.8894
89.1815
85.224
89.0986
82.7108
89.433
78.5883
87.8597
73.0073
82.3372
67.3814
76.068
63.425
73.851
63.2982
86.9658
73.5385
141.592
103.707
254.952
123.719
292.851
110.342
166.363
74.6255
92.9494
56.3116
67.2452
51.1107
66.2553
49.1015
69.161
50.3494
63.207
55.8494
67.2441
66.5825
84.3832
84.641
113.651
143.852
268.34
238.087
438.62
133.19
127.976
57.174
53.9931
42.1046
42.5798
40.3818
41.6041
40.2907
40.629
38.4431
37.7984
36.307
35.0563
33.9647
33.1208
32.5852
32.2423
31.974
31.7211
31.4701
31.2199
30.9711
30.723
30.4756
30.2293
29.9845
29.7415
29.5002
29.2607
29.0229
28.7868
28.5521
28.3186
28.086
27.8544
27.6239
27.3946
27.1666
26.9397
26.7137
26.4885
26.2641
26.0407
25.8184
25.5971
25.3767
25.1569
24.9376
24.7188
24.5006
24.2831
24.0664
23.8505
23.6352
23.4206
23.2066
22.993
22.7798
22.5669
22.3544
22.1423
21.9308
21.72
21.5098
21.3004
21.0917
20.8839
20.6769
20.4708
20.2656
20.0613
19.8577
19.6548
19.4525
19.2506
19.0492
18.8483
18.648
18.4485
18.2498
18.0521
17.8556
17.6603
17.4661
17.2729
17.0804
16.8886
16.6973
16.5063
16.3156
16.125
15.9345
15.744
15.5536
15.3634
15.1736
14.9844
14.7961
14.6087
14.4223
14.2369
14.0524
13.8688
13.6861
13.5043
13.3236
13.144
12.9655
12.7882
12.612
12.4367
12.2622
12.0884
11.9152
11.7426
11.5706
11.3992
11.2284
11.0582
10.8886
10.7194
10.5506
10.3823
10.2144
10.0471
9.88054
9.71465
9.54946
9.38487
9.2207
9.05676
8.89288
8.72893
8.56488
8.40079
8.2368
8.07308
7.90978
7.747
7.58478
7.42304
7.26166
7.10047
6.93932
6.7781
6.61678
6.45541
6.29411
6.13307
5.97248
5.81254
5.65341
5.49523
5.33808
5.18199
5.02699
4.8731
4.72032
4.56866
4.41812
4.26869
4.12033
3.97296
3.82648
3.68074
3.53557
3.39078
3.24622
3.10172
2.95721
2.81262
2.66797
2.52332
2.37878
2.23447
2.0905
1.94696
1.80389
1.66134
1.51935
1.37804
1.23756
1.09818
0.960289
0.824331
0.690046
0.558704
0.433476
0.320492
0.226407
0.149522
0.0981867
0.0784951
0.00688211
0.0116674
0.0872022
0.108104
0.161523
0.2428
0.348301
0.467193
0.592894
0.721673
0.852389
0.984659
1.11822
1.25293
1.38865
1.52535
1.66309
1.80202
1.94231
2.0841
2.22744
2.37234
2.51871
2.66645
2.81546
2.96563
3.11688
3.26914
3.42232
3.57634
3.73108
3.88638
4.04207
4.19798
4.35395
4.50987
4.66567
4.82137
4.97705
5.13285
5.28891
5.44542
5.60247
5.76013
5.91835
6.077
6.23588
6.39475
6.55334
6.71144
6.86893
7.0258
7.18212
7.33813
7.49409
7.65031
7.80709
7.96466
8.12313
8.28257
8.44289
8.60401
8.76579
8.92812
9.09096
9.25431
9.41823
9.58282
9.74819
9.91441
10.0815
10.2495
10.4183
10.5879
10.7582
10.9294
11.1015
11.2745
11.4486
11.6237
11.7998
11.9767
12.1541
12.3318
12.5093
12.6866
12.8634
13.0399
13.2162
13.3926
13.5694
13.7469
13.9252
14.1043
14.284
14.4643
14.645
14.8258
15.0067
15.1877
15.369
15.5506
15.7327
15.9155
16.0991
16.2837
16.4695
16.6566
16.8451
17.0351
17.2264
17.419
17.6128
17.8074
18.0028
18.1989
18.3958
18.5937
18.7926
18.9929
19.1945
19.3975
19.6018
19.8073
20.0136
20.2207
20.4285
20.6368
20.8459
21.0559
21.2669
21.4793
21.6931
21.9084
22.1249
22.3423
22.5603
22.7785
22.9968
23.2151
23.4336
23.6528
23.8729
24.0941
24.3164
24.5397
24.7637
24.9882
25.2131
25.4384
25.6644
25.8914
26.1197
26.3493
26.5804
26.8127
27.0461
27.2803
27.5152
27.7505
27.9862
28.2224
28.4592
28.697
28.9358
29.1758
29.4171
29.6597
29.9036
30.1487
30.3951
30.6426
30.8913
31.1411
31.3919
31.6438
31.8958
32.1487
32.4155
32.7553
33.286
34.1234
35.21
36.4611
37.9466
38.5881
40.7598
40.4335
41.7872
40.5359
42.6843
42.1348
53.7263
56.7281
126.011
131.049
436.57
235.075
270.978
145.573
114.558
84.9191
84.7489
66.5825
67.2619
55.5933
63.0826
50.0745
69.1042
48.753
65.5582
50.7264
67.0531
56.021
93.2699
74.4677
168.175
109.651
297.324
121.043
250.59
100.316
137.386
71.1478
84.501
61.524
72.1889
61.843
74.5278
66.0384
81.0022
71.9895
87.469
77.8104
89.8779
81.8569
89.2195
83.5146
87.514
84.3363
87.0486
85.3058
87.9022
86.9999
89.5384
88.6585
90.8416
89.526
90.4807
89.2101
89.9127
89.0492
89.8614
89.6276
91.5155
92.0598
94.333
96.2909
96.8668
101.372
100.867
101.828
98.2602
100.457
107.645
112.382
101.597
-585.899
-1670.18
-3882.13
-5388.68
-6326.75
-6580.73
-6549.86
-6508.42
-6385
-6137.22
-5907.92
-5596.52
-5144.49
-4486.22
-3563.77
-2268.05
-206.484
2895.55
8751.06
0.0310124
0.0453245
0.0500662
0.0502699
0.0480893
0.0450578
0.0406351
0.0366701
0.0340612
0.0327406
0.0322064
0.0319607
0.0317764
0.03152
0.0310711
0.0296344
0.026893
0.0344796
0.0550727
0.0634323
0.0665336
0.0679859
0.0687595
0.0692023
0.0694424
0.069561
0.0695937
0.0695619
0.0694785
0.0693522
0.0691898
0.0689964
0.068776
0.0685323
0.0682683
0.0679871
0.0676913
0.0673838
0.0670673
0.0667447
0.0664186
0.0660917
0.0657669
0.0654467
0.065134
0.0648313
0.064541
0.0642656
0.0640072
0.063768
0.0635498
0.0633542
0.0631829
0.0630368
0.0629169
0.0628238
0.062758
0.0627193
0.0627077
0.0627225
0.0627631
0.0628285
0.0629176
0.0630291
0.0631615
0.0633135
0.0634836
0.0636704
0.0638726
0.0640889
0.064318
0.064559
0.0648108
0.0650725
0.0653434
0.0656229
0.0659102
0.0662046
0.0665051
0.0668107
0.06712
0.0674312
0.0677421
0.0680498
0.0683507
0.0686402
0.068913
0.0691623
0.0693803
0.0695577
0.069684
0.0697465
0.0697299
0.0696111
0.0693537
0.0688743
0.0680422
0.0664927
0.0631596
0.0541582
0.0320505
0.0240613
0.0273686
0.0289892
0.0295779
0.0301693
0.0309146
0.0318659
0.033084
0.03502
0.0384374
0.0440812
0.0510547
0.0557531
0.0599833
0.0597656
0.0534668
0.0371926
6840.09
-8878.51
-3308.78
-2830.39
358.073
-5784.54
-4281.15
-5457.85
-3529.83
-1896.55
3318.11
7068.51
-4419.02
-4050.95
-3001.64
-599.432
646.86
709.009
1237.61
1294.91
1252.22
372.122
-1054.43
-1497.55
-1273.49
-463.694
383.266
-387.308
-552.664
-441.749
-329.77
-217.15
-97.4654
42.9621
170.551
292.024
360.18
1329.63
0.135808
0.168817
0.218018
0.285366
0.384959
0.499141
0.620055
0.744348
0.871355
1.00056
1.13171
1.2646
1.39902
1.53483
1.67198
1.81049
1.95039
2.09175
2.23461
2.37895
2.52475
2.67195
2.82049
2.9703
3.12133
3.27349
3.4267
3.58084
3.73575
3.89125
4.04713
4.20319
4.35926
4.5152
4.67095
4.82655
4.98209
5.13771
5.29361
5.44995
5.60688
5.76444
5.92259
6.08121
6.24006
6.39888
6.5574
6.71541
6.87277
7.02947
7.18561
7.34143
7.49723
7.65332
7.81002
7.96754
8.12603
8.28549
8.44585
8.607
8.76879
8.93111
9.09392
9.25721
9.42109
9.58564
9.75099
9.9172
10.0843
10.2523
10.4211
10.5907
10.7611
10.9322
11.1043
11.2773
11.4514
11.6266
11.8028
11.9799
12.1574
12.3351
12.5127
12.6899
12.8667
13.043
13.2193
13.3956
13.5724
13.75
13.9283
14.1075
14.2873
14.4677
14.6483
14.8291
15.01
15.191
15.3723
15.5538
15.7359
15.9187
16.1023
16.2869
16.4727
16.6598
16.8483
17.0383
17.2298
17.4224
17.6162
17.8108
18.0062
18.2023
18.3992
18.597
18.7959
18.9962
19.1978
19.4009
19.6053
19.8108
20.0172
20.2243
20.432
20.6403
20.8493
21.0592
21.2702
21.4826
21.6965
21.9118
22.1284
22.3459
22.5639
22.7821
23.0002
23.2184
23.4368
23.6559
23.8761
24.0973
24.3198
24.5431
24.7671
24.9915
25.2162
25.4414
25.6673
25.8942
26.1224
26.3521
26.5831
26.8155
27.0488
27.283
27.5177
27.7528
27.9883
28.2243
28.4608
28.6983
28.9368
29.1765
29.4174
29.6595
29.9028
30.1472
30.3927
30.6392
30.8864
31.1342
31.3821
31.6297
31.8755
32.1156
32.3427
32.5532
32.7538
32.9602
33.1816
33.3827
33.6586
33.8074
34.1727
34.2627
34.771
34.4935
35.356
34.2795
36.8545
33.607
45.6936
35.9139
69.8192
44.9168
73.2309
50.8307
57.29
51.2503
46.9248
41.6723
40.3398
38.6538
38.867
38.7279
39.525
39.2074
40.2425
39.2321
41.2718
39.761
45.2054
42.2837
58.1027
45.4201
76.0634
48.4441
71.4761
46.9892
55.4518
45.5209
48.0419
44.4566
45.9879
44.6968
46.0544
45.5882
46.9141
46.5021
47.6462
47.317
48.4417
48.1629
49.1765
49.0044
50.0022
49.7962
50.47
50.5099
51.0336
51.1627
51.621
51.8118
52.2619
52.4311
52.842
53.0876
53.4882
53.6942
54.0433
54.21
54.3885
54.6018
54.56
54.6819
54.587
53.9592
53.7544
52.5777
54.8901
48.4637
55.5231
37.3915
-1.52843
-28.6365
-316.098
-2147.61
-5887.37
-6715.53
-6690.98
-6597.63
-6522.47
-6426.21
-6293.32
-6107.46
-5840.27
-5462.91
-4935.71
-4220.11
-3303.53
-2330.43
-2280.71
-179.764
-907.315
-1582.79
-2243.76
-2892.91
-3508.83
-4077.99
-4593.55
-5047
-5425.74
-5716.14
-5900.21
-5927.34
-5751.42
-5193.68
-4071.94
-2590.03
-392.008
-142.488
-3.4734
4.42375
47.3221
55.7312
52.2125
58.91
57.9673
58.0429
58.5378
57.9031
57.749
57.6557
57.3778
56.9195
56.7094
56.1914
55.8892
55.3337
54.7816
54.3124
53.8341
53.5405
52.9135
52.6053
52.035
51.8078
51.1347
50.9797
50.1741
50.1901
49.1821
49.2969
48.1747
48.3755
47.2073
47.5421
46.2298
46.6505
45.2768
46.6159
45.0465
48.7819
46.1739
56.3128
47.6326
71.9182
48.8071
75.3477
45.7091
57.5882
42.3464
45.1223
39.8499
41.3791
39.3456
40.3236
39.268
39.6005
38.7604
38.9016
38.6637
40.3165
41.6559
46.8522
51.1816
57.1777
50.932
72.5572
44.8423
69.599
36.0507
45.7961
33.5487
36.7988
34.1688
35.2376
34.3678
34.6437
34.1282
34.0322
33.6608
33.5078
33.2274
33.022
32.7961
32.5859
32.3823
32.1698
31.9415
31.7016
31.4569
31.2111
30.965
30.7188
30.4728
30.2276
29.9837
29.7413
29.5006
29.2616
29.0242
28.7885
28.5541
28.3208
28.0883
27.8568
27.6264
27.3973
27.1695
26.9427
26.7168
26.4916
26.2672
26.0439
25.8217
25.6006
25.3802
25.1604
24.941
24.7222
24.504
24.2866
24.0699
23.854
23.6388
23.4243
23.2103
22.9967
22.7834
22.5705
22.358
22.1459
21.9344
21.7235
21.5134
21.304
21.0953
20.8875
20.6805
20.4744
20.2692
20.0649
19.8614
19.6585
19.4562
19.2543
19.0528
18.8519
18.6515
18.4519
18.2532
18.0556
17.8591
17.6638
17.4696
17.2764
17.084
16.8922
16.7009
16.5099
16.3191
16.1285
15.9379
15.7474
15.5569
15.3667
15.1768
14.9876
14.7992
14.6119
14.4255
14.24
14.0555
13.8719
13.6891
13.5073
13.3265
13.1469
12.9685
12.7912
12.615
12.4398
12.2653
12.0914
11.9182
11.7456
11.5736
11.4022
11.2315
11.0614
10.8917
10.7225
10.5537
10.3853
10.2174
10.0501
9.88353
9.71768
9.55256
9.38805
9.22396
9.06008
8.89622
8.73226
8.56819
8.40406
8.24005
8.07632
7.91305
7.75034
7.5882
7.42656
7.26526
7.10413
6.94302
6.7818
6.62047
6.45907
6.29774
6.13668
5.97609
5.81617
5.65707
5.49893
5.34183
5.18579
5.03085
4.87703
4.72433
4.57277
4.42235
4.27307
4.12489
3.97773
3.83148
3.68596
3.54101
3.39644
3.25207
3.10775
2.9634
2.81897
2.67447
2.52998
2.3856
2.24146
2.09769
1.9544
1.81169
1.66965
1.52845
1.38828
1.24933
1.11209
0.97694
0.844083
0.713247
0.584946
0.462921
0.354803
0.276295
0.209704
0.15949
0.125877
0.155213
0.161603
0.15675
0.14985
0.148725
0.145505
0.142371
0.140774
0.140552
0.141069
0.141949
0.142929
0.144118
0.145159
0.146035
0.148983
0.16408
0.183236
0.192631
0.197667
0.200898
0.20325
0.205021
0.206424
0.207572
0.208539
0.209368
0.210085
0.210711
0.211259
0.211739
0.212158
0.212523
0.212837
0.213106
0.213331
0.213517
0.213668
0.213785
0.213873
0.213935
0.213975
0.213995
0.214
0.213993
0.213977
0.213956
0.213933
0.21391
0.213891
0.213877
0.213871
0.213874
0.213886
0.213908
0.21394
0.213981
0.214029
0.214083
0.214141
0.2142
0.214257
0.21431
0.214354
0.214389
0.21441
0.214416
0.214406
0.214377
0.214329
0.214262
0.214176
0.214072
0.21395
0.213813
0.213663
0.213501
0.213328
0.213147
0.212957
0.212758
0.21255
0.212328
0.212089
0.211826
0.211528
0.211183
0.210774
0.210281
0.209681
0.208942
0.208029
0.206894
0.205461
0.203615
0.201145
0.197755
0.192387
0.182383
0.16206
0.146359
0.143871
0.143325
0.142682
0.142057
0.141793
0.141771
0.142287
0.143772
0.146889
0.152181
0.156672
0.152111
0.164636
0.173004
0.166604
-5582.17
-6030.02
-9527.93
-12784.2
-9461.55
-8949.52
-14286.6
-18802.6
-23078.4
-28080.1
-30218.1
-15279.8
-8964.31
-5741.22
-3148.93
-1600.83
-865.352
-446.694
-278.515
-346.446
-815.128
-1507.95
-2029.23
-2063.79
-1804.43
-1690.22
-1530.49
-1323.16
-1135.19
-979.753
-840.331
-710.449
-582.853
-461.379
-355.934
-267.873
0.204457
0.225295
0.228478
0.22681
0.243401
0.250289
0.254005
0.258231
0.262731
0.267035
0.27114
0.275252
0.279183
0.283023
0.286543
0.29125
0.301894
0.312595
0.32015
0.325657
0.330024
0.333556
0.33649
0.338967
0.341112
0.342999
0.344682
0.346199
0.347577
0.348833
0.349983
0.351037
0.352003
0.352887
0.353696
0.354432
0.355102
0.355709
0.356258
0.356752
0.357196
0.357593
0.357949
0.358267
0.358553
0.35881
0.359042
0.359254
0.359449
0.359631
0.359802
0.359964
0.360119
0.360267
0.360409
0.360543
0.360669
0.360783
0.360883
0.360965
0.361024
0.361058
0.36106
0.361027
0.360955
0.36084
0.360679
0.36047
0.360212
0.359905
0.359548
0.359143
0.358692
0.358199
0.357665
0.357096
0.356494
0.355863
0.355205
0.354523
0.353816
0.353085
0.352325
0.351531
0.350695
0.349804
0.348841
0.347782
0.346598
0.345256
0.343711
0.341913
0.339797
0.337286
0.334255
0.330566
0.325987
0.320195
0.312242
0.301017
0.290206
0.285823
0.282813
0.279621
0.276386
0.27292
0.269484
0.266247
0.26313
0.260768
0.260918
0.25532
0.216083
0.238419
0.239306
0.215244
-1030.39
-1702.32
-2337.99
-2953.21
-3535.29
-4072.94
-4558.39
-4983.51
-5339.68
-5617.57
-5806.24
-5908.08
-5908.33
-5432.42
-3362.5
-464.122
-27.9853
40.5829
54.5021
38.4422
44.3056
50.0787
52.8993
55.8354
56.8162
57.3459
57.6372
57.5713
57.4349
57.2697
57.0231
56.706
56.3786
55.9973
55.6059
55.1617
54.6943
54.2358
53.7907
53.3698
52.9225
52.5053
52.077
51.6721
51.2118
50.8062
50.3464
49.9581
49.4835
49.1105
48.6378
48.308
47.8696
47.6358
47.2724
47.2342
46.7737
46.9161
45.9577
46.6436
44.6907
46.7957
44.3057
46.632
45.4016
45.711
42.9367
44.5765
41.7506
43.303
41.5667
42.05
41.1269
40.9868
40.5918
40.577
40.4576
40.6475
40.4299
40.0964
39.7122
39.8209
38.6931
41.5587
38.9233
41.9248
41.0709
40.2695
35.2447
37.5934
34.1802
35.7967
34.6342
34.982
34.6373
34.523
34.2637
34.0186
33.7569
33.5208
33.2801
33.0494
32.8222
32.5995
32.3788
32.1545
31.9236
31.6865
31.4456
31.2028
30.9589
30.7143
30.4696
30.2254
29.9823
29.7407
29.5005
29.262
29.0251
28.7897
28.5555
28.3224
28.0901
27.8587
27.6285
27.3996
27.1719
26.9452
26.7194
26.4943
26.2701
26.0469
25.8247
25.6036
25.3831
25.1633
24.9439
24.7251
24.5069
24.2895
24.0729
23.8571
23.642
23.4275
23.2135
22.9998
22.7866
22.5736
22.3611
22.149
21.9375
21.7267
21.5166
21.3072
21.0985
20.8907
20.6837
20.4777
20.2725
20.0682
19.8647
19.6619
19.4595
19.2576
19.0562
18.8551
18.6547
18.4551
18.2564
18.0588
17.8624
17.6671
17.473
17.2797
17.0873
16.8954
16.7041
16.5131
16.3223
16.1316
15.941
15.7504
15.5598
15.3695
15.1797
14.9905
14.8022
14.6148
14.4284
14.2429
14.0583
13.8746
13.6918
13.5099
13.3291
13.1496
12.9712
12.794
12.6179
12.4426
12.2681
12.0942
11.921
11.7484
11.5764
11.4051
11.2345
11.0644
10.8947
10.7255
10.5566
10.3882
10.2203
10.0529
9.88637
9.72058
9.55553
9.39109
9.22705
9.0632
8.89934
8.73536
8.57125
8.4071
8.24308
8.07938
7.91618
7.75355
7.59151
7.42995
7.26872
7.10763
6.94652
6.78529
6.62393
6.4625
6.30116
6.1401
5.97952
5.81963
5.66058
5.5025
5.34544
5.18946
5.03458
4.88083
4.72822
4.57677
4.42649
4.27739
4.1294
3.98246
3.83642
3.69113
3.5464
3.40202
3.25783
3.11368
2.96948
2.82519
2.68084
2.5365
2.39229
2.24835
2.1048
1.96178
1.81941
1.67786
1.53742
1.39822
1.26073
1.12552
0.992915
0.863206
0.736327
0.612039
0.492256
0.375584
0.323601
0.261362
0.266142
0.309593
0.417711
0.530093
0.646639
0.766653
0.890038
1.01624
1.145
1.27612
1.40927
1.54424
1.68081
1.81889
1.95841
2.09938
2.24179
2.38564
2.53094
2.67766
2.82579
2.97528
3.12609
3.27815
3.43136
3.58557
3.7406
3.89623
4.05223
4.20838
4.36448
4.5204
4.67608
4.83156
4.98694
5.1424
5.29813
5.45433
5.61114
5.76861
5.9267
6.08526
6.24406
6.40281
6.56124
6.71912
6.87632
7.03284
7.1888
7.34444
7.50009
7.65609
7.81273
7.97024
8.12874
8.28824
8.44865
8.60982
8.77161
8.9339
9.09666
9.25991
9.42373
9.58826
9.75359
9.91981
10.0869
10.2549
10.4237
10.5933
10.7637
10.9348
11.1069
11.2799
11.4541
11.6294
11.8057
11.9828
12.1604
12.3382
12.5157
12.6929
12.8695
13.0458
13.2219
13.3983
13.5751
13.7527
13.9311
14.1104
14.2903
14.4707
14.6513
14.8321
15.013
15.194
15.3752
15.5567
15.7388
15.9216
16.1052
16.2899
16.4757
16.6628
16.8514
17.0415
17.2329
17.4256
17.6194
17.814
18.0093
18.2054
18.4022
18.6
18.799
18.9993
19.201
19.4042
19.6086
19.8141
20.0205
20.2275
20.4352
20.6434
20.8524
21.0622
21.2733
21.4857
21.6996
21.915
22.1316
22.3491
22.567
22.7851
23.0031
23.2211
23.4395
23.6587
23.8788
24.1002
24.3227
24.546
24.7699
24.9941
25.2187
25.4437
25.6695
25.8964
26.1247
26.3543
26.5854
26.8176
27.0509
27.285
27.5195
27.7545
27.9897
28.2254
28.4617
28.6989
28.937
29.1763
29.4168
29.6584
29.9011
30.1449
30.3896
30.635
30.8809
31.127
31.3726
31.6171
31.8591
32.0963
32.3262
32.5482
32.7657
32.9844
33.2072
33.4334
33.6696
33.901
34.1575
34.3977
34.6527
34.7651
35.1031
34.7616
35.9164
34.291
37.7072
35.3016
40.3774
41.1429
41.9824
39.0059
41.6535
38.7085
39.85
39.7274
40.1098
40.4276
40.6404
40.4487
40.5602
40.5562
40.9428
41.0555
41.9863
41.4314
43.1881
41.552
44.4504
42.7333
45.4958
45.1151
46.3844
43.8916
46.4228
44.2836
46.2188
45.5198
46.4337
46.2527
46.6754
46.6626
46.9855
47.1668
47.5499
47.8005
48.2096
48.5011
48.9127
49.2404
49.6732
49.9486
50.2946
50.5783
50.903
51.1933
51.5117
51.8097
52.1244
52.4081
52.7086
52.9976
53.2892
53.5451
53.7862
53.977
54.1377
54.2628
54.3105
54.3103
54.1869
53.9009
53.5899
53.2314
52.9081
51.1248
50.0556
44.8883
48.2478
81.2744
43.0866
-552.609
-3221.58
-5956.39
-6604.61
-6575.37
-6528.8
-6490.49
-6421.64
-6314.1
-6156.04
-5935
-5642.22
-5282.61
-4926.62
-4897.53
-6283.45
-8299.76
-10008.6
-9989.36
-10538.8
-13172.8
-16142.8
-18776.9
-20876
-20455.5
-14916.7
-10348.8
-7224
-4884.85
-3353.32
-2480.81
-1942.66
-1677.78
-1649.82
-1830.33
-2157.09
-2405.88
-2428.32
-2336.76
-2243
-2096.35
-1929.06
-1770.41
-1629.66
-1505.89
-1396.03
-1296.21
-1204.47
-1120.32
-1791.66
-2421.18
-3025.33
-3594.48
-4118.67
-4591.08
-5005.23
-5355.35
-5638.93
-5870.16
-6070.67
-5904.88
-3981.8
-578.637
-17.3267
35.4919
44.0218
48.1733
45.3927
47.9712
50.9631
53.2594
55.2138
56.2125
56.7991
57.1037
57.155
57.0917
56.9495
56.7325
56.4528
56.1424
55.7873
55.4116
54.9992
54.5691
54.1379
53.7094
53.2912
52.8608
52.4457
52.0227
51.6135
51.1812
50.7727
50.3396
49.9431
49.5073
49.1258
48.7011
48.3538
47.9645
47.6835
47.3524
47.16
46.8128
46.6511
46.1626
46.043
45.2915
45.5254
44.7685
45.1228
44.506
44.4266
43.4137
43.4903
42.5985
42.681
42.0205
41.8606
41.342
41.0933
40.7622
40.6252
40.4378
40.3665
40.0859
39.7452
39.235
38.9155
38.3658
38.7914
38.2136
38.4849
38.2661
38.2995
36.8225
36.7352
35.6489
35.5945
35.1478
35.004
34.7465
34.5444
34.2894
34.0449
33.7904
33.549
33.3068
33.0712
32.8383
32.6083
32.3795
32.149
31.9151
31.6777
31.4378
31.1963
30.9535
30.71
30.4663
30.223
29.9806
29.7396
29.4999
29.2618
29.0251
28.7899
28.5559
28.3229
28.0908
27.8596
27.6296
27.4008
27.1732
26.9466
26.7209
26.496
26.2719
26.0488
25.8266
25.6054
25.3849
25.165
24.9456
24.7267
24.5086
24.2913
24.0748
23.8591
23.644
23.4295
23.2155
23.0018
22.7885
22.5755
22.363
22.1509
21.9395
21.7287
21.5187
21.3094
21.1008
20.893
20.686
20.48
20.2748
20.0706
19.8671
19.6643
19.4619
19.26
19.0585
18.8575
18.657
18.4574
18.2587
18.0612
17.8648
17.6696
17.4754
17.2822
17.0896
16.8977
16.7063
16.5153
16.3244
16.1337
15.943
15.7523
15.5617
15.3714
15.1816
14.9925
14.8042
14.6169
14.4305
14.245
14.0603
13.8765
13.6936
13.5117
13.331
13.1515
12.9732
12.7961
12.6199
12.4446
12.2701
12.0962
11.9229
11.7504
11.5785
11.4073
11.2367
11.0666
10.897
10.7278
10.5589
10.3904
10.2224
10.0551
9.88855
9.7228
9.5578
9.3934
9.22939
9.06553
8.90165
8.73764
8.5735
8.40935
8.24536
8.08173
7.9186
7.75607
7.5941
7.43261
7.27141
7.11032
6.9492
6.78794
6.62654
6.46509
6.30375
6.1427
5.98215
5.82231
5.66331
5.50527
5.34827
5.19234
5.03752
4.88383
4.7313
4.57996
4.42982
4.28088
4.13308
3.98633
3.84049
3.69539
3.55084
3.40663
3.26258
3.11855
2.97447
2.83029
2.68607
2.54187
2.39782
2.25406
2.11073
1.96795
1.82588
1.68476
1.54478
1.40621
1.2698
1.13605
1.0054
0.877935
0.753562
0.634188
0.523791
0.369141
0.369729
0.294443
0.300278
0.286468
0.335412
0.352695
0.361773
0.371648
0.380802
0.388685
0.395965
0.403067
0.409806
0.415852
0.421561
0.427483
0.435191
0.443129
0.449992
0.455919
0.461031
0.465477
0.469343
0.472754
0.475792
0.47853
0.481019
0.483299
0.4854
0.487345
0.489148
0.490823
0.49238
0.493825
0.495166
0.496408
0.497557
0.498617
0.499594
0.500492
0.501317
0.502072
0.502764
0.503399
0.50398
0.504514
0.505005
0.505458
0.505877
0.506266
0.506629
0.506967
0.507282
0.507575
0.507845
0.508091
0.50831
0.508499
0.508653
0.508767
0.508836
0.508854
0.508814
0.508712
0.508542
0.508299
0.50798
0.507582
0.507105
0.506547
0.50591
0.505196
0.504408
0.50355
0.502628
0.501647
0.500611
0.499526
0.498396
0.497224
0.496011
0.494757
0.493461
0.492115
0.49071
0.489232
0.48766
0.485966
0.484113
0.482058
0.479748
0.477121
0.474111
0.47064
0.466629
0.461968
0.45659
0.450364
0.443203
0.435024
0.427345
0.421843
0.416882
0.411804
0.406111
0.39987
0.393401
0.386999
0.380341
0.373825
0.372776
0.368645
0.247258
0.349965
0.309615
0.302165
0.44963
0.554087
0.666295
0.783929
0.905068
1.02909
1.15604
1.28576
1.4179
1.5522
1.6883
1.82602
1.96522
2.10586
2.24792
2.39143
2.53639
2.68279
2.83064
2.97991
3.13057
3.28253
3.43569
3.5899
3.74494
3.9006
4.05662
4.21276
4.36882
4.52466
4.68023
4.83558
4.99082
5.14613
5.30173
5.45782
5.61453
5.77193
5.92996
6.08846
6.24719
6.40585
6.56416
6.7219
6.87894
7.03528
7.19108
7.34659
7.50215
7.65808
7.81471
7.97224
8.13078
8.29033
8.45076
8.61195
8.77372
8.93598
9.09869
9.26189
9.42567
9.59017
9.7555
9.92174
10.0889
10.2569
10.4257
10.5953
10.7656
10.9368
11.1088
11.2819
11.4561
11.6314
11.8078
11.9849
12.1626
12.3403
12.5178
12.6948
12.8714
13.0476
13.2237
13.4
13.5769
13.7546
13.9331
14.1124
14.2923
14.4727
14.6533
14.8341
15.0149
15.1959
15.3771
15.5587
15.7409
15.9237
16.1074
16.2921
16.478
16.6652
16.8538
17.0439
17.2353
17.428
17.6217
17.8162
18.0115
18.2075
18.4044
18.6022
18.8012
19.0016
19.2034
19.4066
19.611
19.8164
20.0227
20.2297
20.4373
20.6456
20.8545
21.0644
21.2754
21.4879
21.7018
21.9171
22.1336
22.351
22.5688
22.7867
23.0046
23.2226
23.4411
23.6603
23.8806
24.102
24.3245
24.5477
24.7714
24.9954
25.2199
25.4448
25.6706
25.8976
26.1258
26.3554
26.5864
26.8186
27.0518
27.2857
27.5201
27.7549
27.99
28.2254
28.4615
28.6984
28.9362
29.1752
29.4152
29.6564
29.8987
30.1419
30.3859
30.6306
30.8755
31.1204
31.3647
31.6077
31.8487
32.0861
32.3189
32.5471
32.7726
32.9984
33.2269
33.4579
33.6956
33.9327
34.1827
34.4229
34.6742
34.8731
35.127
35.2688
35.7102
35.7579
36.8383
36.9069
38.3886
38.3488
38.5661
38.2823
38.8488
38.4039
38.9471
39.2508
39.7543
40.0857
40.3589
40.4211
40.5987
40.7207
41.0385
41.269
41.7732
41.9006
42.5442
42.4223
43.3041
43.1923
44.1851
44.2294
44.8257
44.42
45.1636
44.9024
45.6245
45.7084
46.1626
46.2851
46.5928
46.7382
47.0244
47.2519
47.5845
47.8638
48.2236
48.5321
48.9028
49.2308
49.6045
49.9075
50.2384
50.5354
50.8493
51.144
51.4506
51.744
52.043
52.3237
52.6076
52.8781
53.1415
53.3775
53.5927
53.7689
53.9097
54.0093
54.046
54.025
53.9144
53.6981
53.4376
53.0798
52.7098
51.6962
50.8705
49.7977
51.8143
58.06
38.385
-11.1612
-749.582
-4480.63
-6172.52
-6539.85
-6559.13
-6582.02
-6592.55
-6580.92
-6547.46
-6492.44
-6420.84
-6344.75
-6283.42
-7740.18
-9007.67
-9680.81
-10562
-12196.7
-14044.2
-15639.3
-16562.1
-15950.7
-13128.6
-10254.1
-7859.71
-5958.67
-4620.44
-3759.01
-3190.43
-2868.48
-2747.49
-2777.37
-2894.26
-2989.73
-2989.93
-2929.62
-2841.77
-2709.31
-2560.98
-2415.43
-2280.69
-2160.12
-2053.46
-1958.53
-1872.47
0.303462
-2503.55
-3108.16
-3678.08
-4203.07
-4675.82
-5090.16
-5441.42
-5734.4
-5974.91
-5988.01
-4780.4
-921.785
-37.7078
44.6369
46.9602
45.852
48.7506
48.6399
50.6769
52.4394
53.9271
55.2788
56.06
56.5563
56.8244
56.8905
56.8437
56.7119
56.5074
56.2446
55.9461
55.6074
55.2461
54.8557
54.4494
54.0376
53.6233
53.2126
52.794
52.3838
51.969
51.5629
51.1451
50.7413
50.3247
49.9306
49.517
49.1374
48.7373
48.386
48.0162
47.7122
47.3831
47.1313
46.8042
46.5694
46.175
45.9556
45.4701
45.388
44.9042
44.8846
44.4008
44.1999
43.5561
43.3758
42.7852
42.6043
42.1074
41.8529
41.433
41.1654
40.8535
40.6528
40.4232
40.2466
39.9646
39.6636
39.2755
38.9741
38.6105
38.6005
38.2374
38.2522
37.9177
37.744
36.9583
36.6539
35.9697
35.7191
35.3211
35.0955
34.8198
34.5856
34.3257
34.0761
33.8223
33.577
33.3321
33.0919
32.8539
32.6182
32.3835
32.1482
31.9113
31.6726
31.4324
31.1911
30.9489
30.7061
30.4631
30.2204
29.9787
29.7381
29.4988
29.2609
29.0244
28.7893
28.5555
28.3226
28.0906
27.8596
27.6296
27.4009
27.1735
26.9471
26.7216
26.4968
26.2728
26.0497
25.8275
25.6062
25.3856
25.1656
24.9462
24.7274
24.5094
24.2922
24.0758
23.8601
23.6451
23.4305
23.2164
23.0026
22.7893
22.5763
22.3638
22.1519
21.9405
21.7299
21.5199
21.3107
21.1022
20.8945
20.6875
20.4815
20.2763
20.0721
19.8686
19.6658
19.4635
19.2616
19.0601
18.859
18.6586
18.459
18.2604
18.0629
17.8666
17.6714
17.4772
17.2838
17.0912
16.8992
16.7077
16.5166
16.3256
16.1348
15.944
15.7533
15.5627
15.3725
15.1828
14.9938
14.8056
14.6183
14.4319
14.2463
14.0615
13.8776
13.6947
13.5129
13.3323
13.1529
12.9746
12.7975
12.6213
12.446
12.2714
12.0974
11.9242
11.7517
11.5799
11.4088
11.2383
11.0683
10.8988
10.7295
10.5606
10.392
10.224
10.0567
9.89018
9.72446
9.55949
9.3951
9.23107
9.06719
8.90327
8.73924
8.5751
8.41097
8.24704
8.08349
7.92046
7.75801
7.59611
7.43466
7.27346
7.11236
6.95119
6.78989
6.62846
6.467
6.30566
6.14464
5.98414
5.82434
5.6654
5.50741
5.35046
5.19458
5.03981
4.88619
4.73375
4.58252
4.43251
4.28373
4.1361
3.98953
3.84388
3.69895
3.55454
3.41046
3.26653
3.1226
2.97861
2.83453
2.69041
2.54634
2.40245
2.25888
2.11576
1.97324
1.83146
1.69064
1.55098
1.41304
1.27759
1.14515
1.0161
0.889798
0.765112
0.645581
0.545687
0.372162
0.410472
0.473747
0.565452
0.67868
0.797347
0.917762
1.04045
1.16603
1.2946
1.4258
1.55943
1.69505
1.83236
1.97121
2.11154
2.25333
2.39659
2.54131
2.68752
2.83519
2.98432
3.13485
3.28672
3.43981
3.59395
3.74894
3.90454
4.06049
4.21654
4.3725
4.52822
4.68366
4.83886
4.99396
5.14914
5.30462
5.4606
5.61723
5.77456
5.93252
6.09094
6.24958
6.40813
6.56631
6.72389
6.88077
7.03697
7.19263
7.34804
7.50352
7.65944
7.81608
7.97365
8.13225
8.29184
8.45231
8.6135
8.77525
8.93747
9.10013
9.26328
9.42703
9.59152
9.75686
9.92311
10.0903
10.2583
10.4272
10.5967
10.767
10.9382
11.1102
11.2832
11.4575
11.6328
11.8092
11.9863
12.1639
12.3416
12.519
12.6959
12.8724
13.0485
13.2246
13.401
13.5779
13.7557
13.9343
14.1136
14.2936
14.4739
14.6545
14.8352
15.016
15.1969
15.3782
15.5599
15.7422
15.9252
16.109
16.2938
16.4797
16.667
16.8556
17.0456
17.237
17.4296
17.6233
17.8177
18.013
18.209
18.4058
18.6038
18.8029
19.0033
19.2052
19.4083
19.6126
19.818
20.0242
20.2311
20.4387
20.6469
20.8559
21.0659
21.2769
21.4893
21.7031
21.9183
22.1347
22.3518
22.5694
22.7872
23.0051
23.2231
23.4417
23.661
23.8814
24.1029
24.3252
24.5483
24.7718
24.9957
25.2199
25.4449
25.6707
25.8977
26.1259
26.3555
26.5864
26.8185
27.0515
27.2852
27.5195
27.7541
27.9891
28.2244
28.4603
28.6969
28.9344
29.173
29.4127
29.6536
29.8954
30.1383
30.3819
30.6259
30.8702
31.1143
31.3579
31.6005
31.8415
32.0802
32.316
32.5489
32.7802
33.0118
33.2453
33.481
33.7215
33.9628
34.2127
34.4585
34.7149
34.9457
35.2176
35.4393
35.8318
36.0757
36.7539
37.0469
37.831
37.9978
38.3263
38.3018
38.6546
38.6497
39.0033
39.2925
39.6715
39.9628
40.2359
40.4022
40.6203
40.8064
41.1038
41.3537
41.7571
41.9864
42.462
42.6114
43.1839
43.3343
43.9549
44.1264
44.5847
44.5673
45.0256
45.0783
45.533
45.7183
46.0771
46.2731
46.5595
46.766
47.0487
47.2997
47.6131
47.9007
48.2372
48.5475
48.8943
49.2168
49.5635
49.8718
50.1934
50.4936
50.801
51.0952
51.394
51.6823
51.971
52.2452
52.5162
52.7728
53.018
53.2386
53.4373
53.6013
53.7304
53.8189
53.8527
53.8337
53.7444
53.5754
53.3579
53.0606
52.761
52.1314
51.7843
51.4165
51.6941
53.0391
48.0246
50.1433
-41.1834
-1629.95
-5541.95
-6289.55
-6550.49
-6695.29
-6796.12
-6887.97
-6984.61
-7094.96
-7234.11
-7431.37
0.31585
0.44471
0.460181
0.470618
0.484306
0.496562
0.507181
0.517208
0.527371
0.536806
0.544995
0.552238
0.55933
0.566978
0.574607
0.581671
0.588074
0.59387
0.599068
0.603752
0.607979
0.611823
0.615341
0.618583
0.621586
0.624381
0.626988
0.629426
0.631707
0.63384
0.635836
0.637701
0.639441
0.641062
0.642572
0.643974
0.645274
0.646479
0.647595
0.648626
0.64958
0.650462
0.651279
0.652035
0.652736
0.653388
0.653994
0.654558
0.655083
0.655569
0.656017
0.656427
0.656795
0.657118
0.657392
0.657611
0.657768
0.657857
0.65787
0.6578
0.657639
0.657382
0.657023
0.656558
0.655983
0.655298
0.654501
0.653596
0.652584
0.65147
0.65026
0.648959
0.647574
0.646112
0.644578
0.642979
0.641319
0.6396
0.637824
0.63599
0.634092
0.632121
0.630062
0.627893
0.62558
0.623084
0.62035
0.617317
0.613917
0.610076
0.60573
0.600814
0.595297
0.589132
0.582358
0.574968
0.567153
0.55962
0.553115
0.546934
0.540208
0.532514
0.523655
0.514377
0.505706
0.497514
0.488393
0.470962
0.435723
-8433.29
-9214.7
-10085
-11215.8
-12397.7
-13358.3
-13792.2
-13286
-11661.5
-9809.15
-8081.93
-6624.13
-5518.58
-4738.82
-4204.26
-3873.02
-3703.45
-3652.3
-3662.68
-3677.52
-3650.87
-3583.78
-3488.49
-3363.14
-3221.42
-3075.81
-2935.55
-2807.11
-2692.2
-2592.13
-8021.74
-8734.33
-9473.19
-10283.9
-11068.9
-11668.4
-11887.4
-11520.4