/*--------------------------------*- C++ -*----------------------------------*\
| =========                 |                                                 |
| \\      /  F ield         | OpenFOAM: The Open Source CFD Toolbox           |
|  \\    /   O peration     | Version:  2.2.1                                 |
|   \\  /    A nd           | Web:      www.OpenFOAM.org                      |
|    \\/     M anipulation  |                                                 |
\*---------------------------------------------------------------------------*/
FoamFile
{
    version     2.0;
    format      ascii;
    class       surfaceScalarField;
    location    "3.5e-05";
    object      phi;
}
// * * * * * * * * * * * * * * * * * * * * * * * * * * * * * * * * * * * * * //

dimensions      [0 3 -1 0 0 0 0];

internalField   nonuniform List<scalar> 
44563
(
-8.79617e-14
-6.68906e-14
-3.98499e-14
-4.81118e-14
-1.04659e-14
-2.93839e-14
6.41433e-15
-1.68803e-14
1.45407e-14
-8.12642e-15
1.65402e-14
-1.99944e-15
1.43196e-14
2.22054e-15
9.04566e-15
5.27399e-15
1.41356e-15
7.6321e-15
-8.41921e-15
9.83277e-15
-2.098e-14
1.25608e-14
-3.74858e-14
1.65058e-14
-5.90508e-14
2.15651e-14
-8.90537e-14
3.00029e-14
-1.30247e-13
4.11931e-14
-1.87594e-13
5.73472e-14
-2.6075e-13
7.31563e-14
-3.37461e-13
7.6711e-14
-3.33765e-13
-3.69638e-15
-1.62374e-13
-1.71391e-13
-2.16838e-13
5.44637e-14
-7.07848e-14
-1.46053e-13
-8.66534e-14
1.58687e-14
-6.9571e-14
-1.70824e-14
-3.86472e-14
-3.09239e-14
-4.17326e-14
3.08547e-15
-3.07707e-14
-1.09619e-14
-2.26635e-14
-8.10718e-15
-1.80073e-14
-4.65621e-15
-1.10418e-14
-6.96548e-15
-5.7148e-15
-5.32704e-15
-2.02041e-15
-3.6944e-15
6.79152e-16
-2.69956e-15
3.39666e-15
-2.71751e-15
4.40302e-15
-1.00636e-15
5.81298e-15
-1.40995e-15
5.9645e-15
-1.51526e-16
6.45104e-15
-4.86538e-16
7.15839e-15
-7.07352e-16
7.65312e-15
-4.94732e-16
8.3919e-15
-7.38782e-16
8.09032e-15
3.01578e-16
8.89314e-15
-8.02817e-16
8.58103e-15
3.12106e-16
9.35874e-15
-7.77705e-16
8.55246e-15
8.0628e-16
9.66461e-15
-1.11215e-15
8.74858e-15
9.16031e-16
1.06425e-14
-1.89389e-15
9.32435e-15
1.31813e-15
1.22028e-14
-2.87843e-15
1.08368e-14
1.36595e-15
1.4766e-14
-3.92915e-15
1.33995e-14
1.36645e-15
1.82908e-14
-4.89123e-15
1.60488e-14
2.242e-15
2.17902e-14
-5.74148e-15
1.72747e-14
4.51551e-15
2.43258e-14
-7.05105e-15
1.57851e-14
8.54063e-15
2.56084e-14
-9.82322e-15
1.1654e-14
1.39543e-14
2.54392e-14
-1.37851e-14
4.1908e-15
2.12484e-14
2.24115e-14
-1.82207e-14
-6.76099e-15
2.91725e-14
2.19649e-14
-2.87259e-14
-5.97079e-15
2.79357e-14
1.48248e-14
-2.07956e-14
-7.72773e-15
2.25525e-14
6.25543e-15
-1.39832e-14
-8.83898e-15
1.50944e-14
3.7882e-15
-1.26272e-14
-5.0883e-15
8.87649e-15
5.723e-15
-1.08113e-14
1.84216e-15
3.88084e-15
1.00141e-14
-8.17192e-15
8.31397e-15
1.70012e-15
1.42073e-14
-5.89338e-15
1.09882e-14
3.21912e-15
1.49038e-14
-3.91558e-15
9.89886e-15
5.00494e-15
1.33633e-14
-3.46442e-15
6.20896e-15
7.15431e-15
9.23156e-15
-3.0226e-15
-5.69003e-15
1.49216e-14
4.81282e-15
-1.05028e-14
-2.53769e-14
3.01898e-14
1.01571e-14
-3.5534e-14
-4.45597e-15
1.4613e-14
7.36368e-15
-1.18197e-14
-7.02463e-15
1.43883e-14
2.25268e-15
-9.27731e-15
-7.05982e-15
9.3125e-15
-2.05673e-16
-6.85415e-15
-3.46169e-15
3.25602e-15
-2.86548e-16
-3.17514e-15
-1.22743e-15
9.40887e-16
7.12898e-16
-1.94033e-15
1.36199e-15
-6.4909e-16
2.91787e-15
-1.55588e-15
3.76763e-15
-8.49764e-16
4.8933e-15
-1.12567e-15
5.72468e-15
-8.31374e-16
6.47361e-15
-7.48928e-16
7.03621e-15
-5.62599e-16
7.39186e-15
-3.55657e-16
7.58335e-15
-1.91491e-16
7.68034e-15
-9.69827e-17
7.73504e-15
-5.47076e-17
7.77035e-15
-3.53022e-17
7.79421e-15
-2.38687e-17
7.81026e-15
-1.60473e-17
7.8205e-15
-1.02386e-17
7.82618e-15
-5.68168e-18
7.82823e-15
-2.04867e-18
7.8274e-15
8.23259e-19
7.82433e-15
3.06857e-18
7.81948e-15
4.8512e-18
7.81317e-15
6.31134e-18
7.80564e-15
7.52659e-18
7.79712e-15
8.51948e-18
7.78781e-15
9.30854e-18
7.77787e-15
9.94728e-18
7.76735e-15
1.05095e-17
7.75631e-15
1.1041e-17
7.74478e-15
1.15326e-17
7.73284e-15
1.19399e-17
7.7206e-15
1.22367e-17
7.70816e-15
1.24475e-17
7.69552e-15
1.26331e-17
7.68268e-15
1.2841e-17
7.66961e-15
1.30691e-17
7.65634e-15
1.32723e-17
7.64293e-15
1.34027e-17
7.62948e-15
1.34501e-17
7.61603e-15
1.34507e-17
7.60257e-15
1.34602e-17
7.58906e-15
1.35165e-17
7.57544e-15
1.36198e-17
7.5617e-15
1.374e-17
7.54786e-15
1.38408e-17
7.53395e-15
1.38998e-17
7.52004e-15
1.3917e-17
7.50613e-15
1.39077e-17
7.49224e-15
1.3892e-17
7.47835e-15
1.38867e-17
7.46445e-15
1.39012e-17
7.45052e-15
1.39368e-17
7.43653e-15
1.39868e-17
7.42249e-15
1.40408e-17
7.4084e-15
1.40866e-17
7.39428e-15
1.41188e-17
7.38014e-15
1.41395e-17
7.36599e-15
1.41536e-17
7.35182e-15
1.41642e-17
7.33766e-15
1.41676e-17
7.3235e-15
1.41558e-17
7.30938e-15
1.41244e-17
7.2953e-15
1.4077e-17
7.28128e-15
1.40249e-17
7.2673e-15
1.39793e-17
7.25335e-15
1.39436e-17
7.23944e-15
1.39097e-17
7.22558e-15
1.38667e-17
7.21177e-15
1.38072e-17
7.19803e-15
1.37397e-17
7.18434e-15
1.36847e-17
7.17068e-15
1.36623e-17
7.157e-15
1.36797e-17
7.14328e-15
1.37228e-17
7.12952e-15
1.37604e-17
7.11576e-15
1.37582e-17
7.10206e-15
1.36961e-17
7.08849e-15
1.35772e-17
7.07506e-15
1.3426e-17
7.06179e-15
1.32753e-17
7.04864e-15
1.31509e-17
7.03557e-15
1.30638e-17
7.02257e-15
1.30055e-17
7.00961e-15
1.29611e-17
6.99669e-15
1.29183e-17
6.98381e-15
1.28751e-17
6.97097e-15
1.28391e-17
6.95815e-15
1.28209e-17
6.94533e-15
1.28243e-17
6.93248e-15
1.28436e-17
6.91962e-15
1.2863e-17
6.90676e-15
1.28639e-17
6.89392e-15
1.28333e-17
6.88115e-15
1.27694e-17
6.86847e-15
1.2682e-17
6.85589e-15
1.25868e-17
6.84338e-15
1.25015e-17
6.83095e-15
1.24338e-17
6.81857e-15
1.2384e-17
6.80622e-15
1.23445e-17
6.79392e-15
1.23047e-17
6.78166e-15
1.22563e-17
6.76946e-15
1.2196e-17
6.75734e-15
1.21262e-17
6.74528e-15
1.20536e-17
6.7333e-15
1.19848e-17
6.72138e-15
1.19243e-17
6.7095e-15
1.18728e-17
6.69767e-15
1.18279e-17
6.68589e-15
1.17846e-17
6.67415e-15
1.17415e-17
6.66245e-15
1.16956e-17
6.6508e-15
1.16494e-17
6.6392e-15
1.16072e-17
6.62762e-15
1.15732e-17
6.61607e-15
1.1551e-17
6.60453e-15
1.15406e-17
6.59299e-15
1.15395e-17
6.58145e-15
1.15429e-17
6.5699e-15
1.15455e-17
6.55836e-15
1.15438e-17
6.54682e-15
1.15376e-17
6.53529e-15
1.1531e-17
6.52376e-15
1.15308e-17
6.51221e-15
1.15475e-17
6.50062e-15
1.1588e-17
6.48897e-15
1.16582e-17
6.47721e-15
1.17583e-17
6.46533e-15
1.18824e-17
6.45331e-15
1.20199e-17
6.44115e-15
1.21568e-17
6.42887e-15
1.22797e-17
6.41649e-15
1.23793e-17
6.40403e-15
1.24531e-17
6.39153e-15
1.25067e-17
6.37897e-15
1.25531e-17
6.36636e-15
1.26092e-17
6.35367e-15
1.26919e-17
6.34086e-15
1.2816e-17
6.32787e-15
1.29868e-17
6.31467e-15
1.32031e-17
6.30121e-15
1.34554e-17
6.28748e-15
1.37284e-17
6.27347e-15
1.40059e-17
6.2592e-15
1.42727e-17
6.24468e-15
1.45191e-17
6.22994e-15
1.47426e-17
6.21499e-15
1.49478e-17
6.19985e-15
1.51456e-17
6.1845e-15
1.53497e-17
6.16892e-15
1.55745e-17
6.15309e-15
1.58313e-17
6.13697e-15
1.61265e-17
6.1205e-15
1.64633e-17
6.10367e-15
1.68368e-17
6.08642e-15
1.72404e-17
6.06876e-15
1.76652e-17
6.05065e-15
1.81025e-17
6.03211e-15
1.85451e-17
6.01312e-15
1.89896e-17
5.99368e-15
1.94383e-17
5.97378e-15
1.99001e-17
5.95339e-15
2.03909e-17
5.93246e-15
2.09296e-17
5.91093e-15
2.1532e-17
5.88873e-15
2.22015e-17
5.8658e-15
2.29219e-17
5.84215e-15
2.3659e-17
5.81777e-15
2.43787e-17
5.79268e-15
2.50877e-17
5.7668e-15
2.58832e-17
5.73981e-15
2.69928e-17
5.71103e-15
2.87764e-17
5.67939e-15
3.16353e-17
5.64353e-15
3.58615e-17
5.60179e-15
4.17438e-17
5.55196e-15
4.98207e-17
5.49065e-15
6.13119e-17
5.40854e-15
8.21084e-17
5.27994e-15
1.28609e-16
5.08338e-15
1.96558e-16
4.81769e-15
2.65695e-16
4.53858e-15
2.79106e-16
4.32867e-15
2.09907e-16
4.17253e-15
1.56148e-16
4.01901e-15
1.53518e-16
3.82189e-15
1.9712e-16
2.64004e-16
-3.82346e-15
2.38198e-16
-4.00891e-15
1.85454e-16
-4.18746e-15
1.78549e-16
-4.40445e-15
2.1699e-16
-4.67588e-15
2.71426e-16
-4.93266e-15
2.56787e-16
-5.13629e-15
2.03623e-16
-5.28625e-15
1.49966e-16
-5.39679e-15
1.10535e-16
-5.48065e-15
8.38651e-17
-5.54622e-15
6.55665e-17
-5.5993e-15
5.30849e-17
-5.64364e-15
4.43388e-17
-5.68207e-15
3.84283e-17
-5.71683e-15
3.47625e-17
-5.7495e-15
3.26655e-17
-5.78088e-15
3.13864e-17
-5.81114e-15
3.02596e-17
-5.83999e-15
2.88482e-17
-5.86697e-15
2.69793e-17
-5.89169e-15
2.47165e-17
-5.91396e-15
2.22677e-17
-5.93385e-15
1.98954e-17
-5.95169e-15
1.78388e-17
-5.96795e-15
1.62662e-17
-5.98321e-15
1.52518e-17
-5.99799e-15
1.47841e-17
-6.01277e-15
1.47809e-17
-6.02789e-15
1.51227e-17
-6.04356e-15
1.56729e-17
-6.05987e-15
1.63069e-17
-6.07679e-15
1.69209e-17
-6.09423e-15
1.74414e-17
-6.11206e-15
1.78244e-17
-6.13011e-15
1.80517e-17
-6.14823e-15
1.81235e-17
-6.16629e-15
1.80536e-17
-6.18415e-15
1.7859e-17
-6.20171e-15
1.75603e-17
-6.21889e-15
1.71765e-17
-6.23561e-15
1.6725e-17
-6.25183e-15
1.62224e-17
-6.26752e-15
1.56856e-17
-6.28265e-15
1.51328e-17
-6.29723e-15
1.45839e-17
-6.31129e-15
1.40595e-17
-6.32487e-15
1.35799e-17
-6.33803e-15
1.31617e-17
-6.35085e-15
1.28163e-17
-6.3634e-15
1.25476e-17
-6.37575e-15
1.23507e-17
-6.38796e-15
1.22147e-17
-6.40008e-15
1.21209e-17
-6.41213e-15
1.20499e-17
-6.42412e-15
1.19835e-17
-6.43603e-15
1.19085e-17
-6.44785e-15
1.18188e-17
-6.45956e-15
1.17161e-17
-6.47117e-15
1.16086e-17
-6.48268e-15
1.15081e-17
-6.49411e-15
1.14266e-17
-6.50548e-15
1.13721e-17
-6.51682e-15
1.13466e-17
-6.52817e-15
1.13449e-17
-6.53953e-15
1.13557e-17
-6.55089e-15
1.13671e-17
-6.56226e-15
1.13661e-17
-6.57361e-15
1.13466e-17
-6.58492e-15
1.13099e-17
-6.59618e-15
1.12655e-17
-6.60741e-15
1.12283e-17
-6.61862e-15
1.12147e-17
-6.62986e-15
1.12377e-17
-6.64116e-15
1.13022e-17
-6.65257e-15
1.14029e-17
-6.66409e-15
1.15238e-17
-6.67574e-15
1.16428e-17
-6.68747e-15
1.17362e-17
-6.69926e-15
1.17853e-17
-6.71104e-15
1.1784e-17
-6.72278e-15
1.17363e-17
-6.73444e-15
1.16608e-17
-6.74602e-15
1.15838e-17
-6.75756e-15
1.15328e-17
-6.76909e-15
1.15298e-17
-6.78067e-15
1.1585e-17
-6.79237e-15
1.16946e-17
-6.80421e-15
1.18417e-17
-6.81621e-15
1.2001e-17
-6.82836e-15
1.21461e-17
-6.84061e-15
1.2256e-17
-6.85293e-15
1.23204e-17
-6.86527e-15
1.23414e-17
-6.87761e-15
1.23336e-17
-6.88992e-15
1.23148e-17
-6.90223e-15
1.23058e-17
-6.91455e-15
1.23218e-17
-6.92692e-15
1.23703e-17
-6.93937e-15
1.24504e-17
-6.95193e-15
1.25552e-17
-6.9646e-15
1.26746e-17
-6.9774e-15
1.27985e-17
-6.99032e-15
1.29195e-17
-7.00335e-15
1.30321e-17
-7.01649e-15
1.31329e-17
-7.0297e-15
1.32189e-17
-7.04299e-15
1.32872e-17
-7.05633e-15
1.33347e-17
-7.06969e-15
1.33622e-17
-7.08306e-15
1.33715e-17
-7.09643e-15
1.33712e-17
-7.10981e-15
1.3373e-17
-7.1232e-15
1.33893e-17
-7.13663e-15
1.34295e-17
-7.15012e-15
1.34959e-17
-7.1637e-15
1.35819e-17
-7.17738e-15
1.36739e-17
-7.19113e-15
1.37544e-17
-7.20494e-15
1.38081e-17
-7.21877e-15
1.38267e-17
-7.23258e-15
1.38114e-17
-7.24635e-15
1.37716e-17
-7.26007e-15
1.37244e-17
-7.27376e-15
1.36849e-17
-7.28742e-15
1.36663e-17
-7.3011e-15
1.36745e-17
-7.3148e-15
1.37084e-17
-7.32856e-15
1.37597e-17
-7.34238e-15
1.38156e-17
-7.35624e-15
1.386e-17
-7.37012e-15
1.38784e-17
-7.38398e-15
1.38596e-17
-7.39778e-15
1.38e-17
-7.41149e-15
1.3707e-17
-7.42508e-15
1.35979e-17
-7.43858e-15
1.34964e-17
-7.45201e-15
1.34262e-17
-7.46541e-15
1.33985e-17
-7.47882e-15
1.34103e-17
-7.49226e-15
1.34415e-17
-7.50572e-15
1.34626e-17
-7.51916e-15
1.3446e-17
-7.53254e-15
1.33787e-17
-7.54581e-15
1.32674e-17
-7.55895e-15
1.31355e-17
-7.57196e-15
1.30131e-17
-7.58488e-15
1.29222e-17
-7.59775e-15
1.28672e-17
-7.61058e-15
1.28336e-17
-7.62338e-15
1.27943e-17
-7.6361e-15
1.27214e-17
-7.64869e-15
1.25943e-17
-7.6611e-15
1.24049e-17
-7.67325e-15
1.21535e-17
-7.68509e-15
1.18442e-17
-7.69658e-15
1.14824e-17
-7.70765e-15
1.10737e-17
-7.71828e-15
1.06252e-17
-7.72842e-15
1.01447e-17
-7.73806e-15
9.63548e-18
-7.74715e-15
9.08879e-18
-7.75562e-15
8.47895e-18
-7.76339e-15
7.76696e-18
-7.7703e-15
6.90662e-18
-7.77615e-15
5.8533e-18
-7.78072e-15
4.56683e-18
-7.78372e-15
3.00467e-18
-7.78483e-15
1.10955e-18
-7.78362e-15
-1.20889e-18
-7.77955e-15
-4.07365e-18
-7.77188e-15
-7.66883e-18
-7.75963e-15
-1.22488e-17
-7.74142e-15
-1.8214e-17
-7.71512e-15
-2.62986e-17
-7.67713e-15
-3.79837e-17
-7.61965e-15
-5.74784e-17
-7.52012e-15
-9.95372e-17
-7.32657e-15
-1.93548e-16
-6.9693e-15
-3.57272e-16
-6.40519e-15
-5.64105e-16
-5.65463e-15
-7.50566e-16
-4.81938e-15
-8.35248e-16
-3.69116e-15
-1.12822e-15
-2.83755e-15
-8.53609e-16
-1.28084e-15
-1.55671e-15
-6.21883e-16
-6.58954e-16
1.33509e-15
-1.95698e-15
4.38207e-16
8.96888e-16
3.62877e-15
-3.19056e-15
4.11335e-16
3.21744e-15
7.28505e-15
-6.87371e-15
-2.04085e-15
9.3259e-15
7.3038e-15
-9.34466e-15
-7.28198e-15
1.45858e-14
4.61947e-15
-1.19015e-14
-1.02188e-14
1.48383e-14
2.5532e-14
-3.57508e-14
-4.72175e-15
3.02537e-14
6.03435e-15
-1.07561e-14
-9.10248e-15
1.51368e-14
-6.00903e-15
-3.09345e-15
-1.32124e-14
7.2034e-15
-9.61803e-15
-3.59441e-15
-1.46434e-14
5.02539e-15
-1.0645e-14
-3.99845e-15
-1.39204e-14
3.27544e-15
-7.94878e-15
-5.97162e-15
-9.74974e-15
1.80096e-15
-1.5404e-15
-8.20934e-15
-5.59975e-15
4.05934e-15
5.3018e-15
-1.09016e-14
-3.76193e-15
9.06374e-15
8.96038e-15
-1.27223e-14
-6.45392e-15
1.54143e-14
7.63749e-15
-1.40914e-14
-1.53141e-14
2.29516e-14
6.27872e-15
-2.15928e-14
-2.17416e-14
2.80203e-14
7.29535e-15
-2.9037e-14
-2.19649e-14
2.92602e-14
-3.67879e-15
-1.82861e-14
-2.47572e-14
2.10785e-14
-1.0859e-14
-1.38983e-14
-2.46992e-14
1.38403e-14
-1.47071e-14
-9.99214e-15
-2.31951e-14
8.48804e-15
-1.59859e-14
-7.20918e-15
-2.06055e-14
4.61957e-15
-1.47029e-14
-5.90257e-15
-1.72088e-14
2.50582e-15
-1.2293e-14
-4.9158e-15
-1.39489e-14
1.65598e-15
-9.78776e-15
-4.16117e-15
-1.13669e-14
1.57909e-15
-8.09239e-15
-3.27446e-15
-9.55827e-15
1.46588e-15
-7.10075e-15
-2.45752e-15
-9.3637e-15
2.26295e-15
-7.65544e-15
-1.70826e-15
-8.75198e-15
1.09654e-15
-7.65634e-15
-1.09564e-15
-8.13074e-15
4.74404e-16
-7.17945e-15
-9.51295e-16
-7.2671e-15
8.765e-17
-6.327e-15
-9.40095e-16
-6.30129e-15
-2.57075e-17
-5.1763e-15
-1.125e-15
-4.67313e-15
-5.03167e-16
-3.51559e-15
-1.15754e-15
-2.90601e-15
-6.09584e-16
-1.48748e-15
-1.41853e-15
-3.75435e-16
-1.11204e-15
1.55902e-15
-1.93445e-15
4.10032e-15
-2.5413e-15
6.76743e-15
-2.66711e-15
1.10467e-14
-4.27926e-15
1.55926e-14
-4.54594e-15
2.10105e-14
-5.41785e-15
3.00098e-14
-8.99933e-15
3.77753e-14
-7.7655e-15
5.33261e-14
-1.55508e-14
4.39754e-14
9.35071e-15
7.05365e-14
-2.65611e-14
5.19879e-14
1.85486e-14
2.73558e-14
2.46322e-14
1.55267e-13
-1.27912e-13
6.15316e-14
9.37358e-14
1.3617e-13
-7.46382e-14
1.11041e-13
2.51288e-14
8.54899e-14
2.5551e-14
6.41431e-14
2.13467e-14
5.2887e-14
1.12561e-14
4.77739e-14
5.11303e-15
4.57976e-14
1.97638e-15
4.54849e-14
3.12715e-16
4.62314e-14
-7.46581e-16
4.83946e-14
-2.16313e-15
5.25127e-14
-4.11816e-15
6.0324e-14
-7.8113e-15
7.51313e-14
-1.48073e-14
1.04435e-13
-2.93034e-14
1.62282e-13
-5.78475e-14
2.72043e-13
-1.09761e-13
4.74692e-13
-2.02648e-13
-4.21922e-13
4.61548e-16
-1.1381e-14
4.43092e-16
-1.81715e-14
1.54022e-16
-2.37363e-14
-3.66318e-16
-2.78687e-14
-9.08774e-16
-3.06616e-14
-1.24547e-15
-3.22355e-14
-1.36641e-15
-3.2515e-14
-1.34775e-15
-3.16142e-14
-1.25959e-15
-2.97552e-14
-1.14464e-15
-2.71733e-14
-1.02373e-15
-2.40806e-14
-9.03813e-16
-2.06556e-14
-7.85541e-16
-1.70394e-14
-6.66746e-16
-1.33379e-14
-5.46669e-16
-9.62854e-15
-4.19254e-16
-5.96644e-15
-2.67503e-16
-2.37733e-15
-1.46226e-16
1.1512e-15
-6.61246e-17
4.52063e-15
-1.87503e-17
7.69417e-15
1.10906e-17
1.07288e-14
3.1076e-17
1.36482e-14
4.52881e-17
1.64638e-14
5.57705e-17
1.91831e-14
6.37562e-17
2.18117e-14
6.99213e-17
2.43548e-14
7.46907e-17
2.68165e-14
7.8334e-17
2.9201e-14
8.10404e-17
3.15113e-14
8.29506e-17
3.37501e-14
8.41762e-17
3.59194e-14
8.48091e-17
3.80206e-14
8.49258e-17
4.00544e-14
8.45906e-17
4.20212e-14
8.38562e-17
4.39209e-14
8.27666e-17
4.57533e-14
8.13576e-17
4.75177e-14
7.96584e-17
4.92134e-14
7.76931e-17
5.08397e-14
7.54817e-17
5.23955e-14
7.30414e-17
5.388e-14
7.03872e-17
5.52922e-14
6.75328e-17
5.66312e-14
6.44908e-17
5.78963e-14
6.12734e-17
5.90864e-14
5.78924e-17
6.02011e-14
5.43596e-17
6.12394e-14
5.06864e-17
6.22008e-14
4.68848e-17
6.30848e-14
4.29662e-17
6.38909e-14
3.89426e-17
6.46184e-14
3.48255e-17
6.52672e-14
3.06266e-17
6.58367e-14
2.63575e-17
6.63268e-14
2.20294e-17
6.67371e-14
1.76534e-17
6.70673e-14
1.32402e-17
6.73174e-14
8.79978e-18
6.74871e-14
4.34175e-18
6.75764e-14
-1.25309e-19
6.7585e-14
-4.59384e-18
6.75131e-14
-9.05737e-18
6.73606e-14
-1.35109e-17
6.71274e-14
-1.79512e-17
6.68137e-14
-2.23765e-17
6.64196e-14
-2.67869e-17
6.59451e-14
-3.11843e-17
6.53904e-14
-3.55724e-17
6.47556e-14
-3.99557e-17
6.4041e-14
-4.43397e-17
6.32467e-14
-4.87294e-17
6.23731e-14
-5.31281e-17
6.14203e-14
-5.75358e-17
6.03887e-14
-6.19474e-17
5.92786e-14
-6.63499e-17
5.80904e-14
-7.07198e-17
5.68245e-14
-7.50206e-17
5.54815e-14
-7.91992e-17
5.40618e-14
-8.31839e-17
5.25662e-14
-8.68825e-17
5.09956e-14
-9.01819e-17
4.93508e-14
-9.2949e-17
4.7633e-14
-9.50353e-17
4.58436e-14
-9.6283e-17
4.39839e-14
-9.65361e-17
4.20555e-14
-9.56531e-17
4.00601e-14
-9.3523e-17
3.79991e-14
-9.00797e-17
3.58737e-14
-8.53131e-17
3.36848e-14
-7.9271e-17
3.14321e-14
-7.20446e-17
2.91148e-14
-6.37306e-17
2.67303e-14
-5.43646e-17
2.42749e-14
-4.37981e-17
2.17432e-14
-3.15478e-17
1.91284e-14
-1.64254e-17
1.64226e-14
3.7643e-18
1.36166e-14
3.35574e-17
1.06995e-14
8.14845e-17
7.65677e-15
1.64418e-16
4.46194e-15
2.93037e-16
1.0555e-15
4.55509e-16
-2.52048e-15
5.93836e-16
-6.16088e-15
7.25169e-16
-9.87834e-15
8.5495e-16
-1.36401e-14
9.8351e-16
-1.73866e-14
1.11484e-15
-2.10397e-14
1.26326e-15
-2.4505e-14
1.44934e-15
-2.76542e-14
1.6866e-15
-3.03152e-14
1.92902e-15
-3.22391e-14
2.10991e-15
-3.31964e-14
2.00606e-15
-3.28115e-14
1.29377e-15
-3.07791e-14
3.94565e-16
-2.77438e-14
-1.98058e-16
-2.3639e-14
-3.77516e-16
-1.81544e-14
-1.14046e-14
-5.04765e-13
-3.19191e-13
-3.95045e-13
-1.67607e-13
-2.2202e-13
-1.24132e-13
-1.41557e-13
-1.82084e-13
-5.50161e-14
-2.08958e-13
-2.6725e-14
3.28654e-14
1.24657e-13
5.58655e-15
2.9361e-13
-2.16985e-13
3.93796e-13
-3.2141e-13
4.3745e-13
-3.86712e-13
3.59305e-13
-4.17562e-13
3.2305e-13
-3.73463e-13
1.33231e-14
2.8164e-13
-5.36034e-14
3.28866e-13
-1.37668e-14
3.3111e-13
8.79367e-14
3.32264e-13
1.74912e-13
2.70454e-13
1.91604e-13
1.92281e-13
2.16932e-13
1.4922e-13
2.34155e-13
1.12715e-13
2.41493e-13
8.58601e-14
2.61077e-13
5.99207e-14
2.53282e-13
4.90217e-14
2.41985e-13
1.04112e-14
2.50594e-13
-1.47896e-14
2.51192e-13
-3.68688e-14
2.34464e-13
-7.05856e-14
2.381e-13
-8.53818e-14
2.47249e-13
-9.5598e-14
2.53864e-13
-1.14718e-13
2.56555e-13
-1.4159e-13
2.5452e-13
-1.72001e-13
2.4693e-13
-2.01477e-13
2.32059e-13
-2.24172e-13
2.08809e-13
-2.34544e-13
1.76349e-13
-2.2875e-13
1.35839e-13
-2.06977e-13
-1.63723e-13
-1.15685e-14
3.49348e-16
-1.18061e-14
4.16133e-16
-1.22359e-14
6.46809e-16
-1.29581e-14
9.93605e-16
-1.36321e-14
9.30839e-16
-1.41418e-14
7.13331e-16
-1.45063e-14
5.14478e-16
-1.47747e-14
3.78914e-16
-1.49806e-14
2.89784e-16
-1.51481e-14
2.33076e-16
-1.52891e-14
1.93988e-16
-1.54103e-14
1.6559e-16
-1.55169e-14
1.45021e-16
-1.56133e-14
1.31156e-16
-1.57031e-14
1.22469e-16
-1.57884e-14
1.1669e-16
-1.58698e-14
1.11635e-16
-1.59467e-14
1.05806e-16
-1.60184e-14
9.86058e-17
-1.60839e-14
9.02171e-17
-1.61429e-14
8.13241e-17
-1.61958e-14
7.27929e-17
-1.62434e-14
6.54266e-17
-1.62869e-14
5.97895e-17
-1.63278e-14
5.61356e-17
-1.63674e-14
5.44289e-17
-1.64071e-14
5.43913e-17
-1.64475e-14
5.56068e-17
-1.64895e-14
5.7599e-17
-1.65331e-14
5.99158e-17
-1.65783e-14
6.21756e-17
-1.6625e-14
6.40926e-17
-1.66726e-14
6.54901e-17
-1.67209e-14
6.62826e-17
-1.67692e-14
6.64644e-17
-1.68172e-14
6.60791e-17
-1.68646e-14
6.52072e-17
-1.6911e-14
6.39437e-17
-1.69562e-14
6.23869e-17
-1.70001e-14
6.06295e-17
-1.70426e-14
5.87553e-17
-1.70838e-14
5.68371e-17
-1.71236e-14
5.49375e-17
-1.71621e-14
5.31087e-17
-1.71994e-14
5.13931e-17
-1.72357e-14
4.98227e-17
-1.72709e-14
4.84185e-17
-1.73053e-14
4.71891e-17
-1.73389e-14
4.61303e-17
-1.73718e-14
4.52307e-17
-1.7404e-14
4.44651e-17
-1.74357e-14
4.38071e-17
-1.74669e-14
4.32292e-17
-1.74976e-14
4.27081e-17
-1.75279e-14
4.22278e-17
-1.75579e-14
4.17816e-17
-1.75876e-14
4.13709e-17
-1.76169e-14
4.10033e-17
-1.76461e-14
4.06879e-17
-1.76751e-14
4.04314e-17
-1.7704e-14
4.02345e-17
-1.77327e-14
4.00897e-17
-1.77614e-14
3.99818e-17
-1.77899e-14
3.9895e-17
-1.78184e-14
3.98088e-17
-1.78467e-14
3.97125e-17
-1.7875e-14
3.96042e-17
-1.79031e-14
3.94931e-17
-1.79313e-14
3.93984e-17
-1.79594e-14
3.93447e-17
-1.79875e-14
3.93549e-17
-1.80157e-14
3.94441e-17
-1.80441e-14
3.96142e-17
-1.80725e-14
3.98515e-17
-1.81011e-14
4.01289e-17
-1.81299e-14
4.04114e-17
-1.81588e-14
4.06623e-17
-1.81879e-14
4.08575e-17
-1.82171e-14
4.09822e-17
-1.82464e-14
4.10428e-17
-1.82758e-14
4.10615e-17
-1.83053e-14
4.10709e-17
-1.83349e-14
4.11061e-17
-1.83645e-14
4.11953e-17
-1.83943e-14
4.13531e-17
-1.84242e-14
4.15768e-17
-1.84542e-14
4.1848e-17
-1.84843e-14
4.21378e-17
-1.85146e-14
4.24147e-17
-1.8545e-14
4.26527e-17
-1.85755e-14
4.28381e-17
-1.86061e-14
4.29712e-17
-1.86369e-14
4.30689e-17
-1.86677e-14
4.31519e-17
-1.86986e-14
4.32463e-17
-1.87297e-14
4.33723e-17
-1.87609e-14
4.3541e-17
-1.87922e-14
4.37522e-17
-1.88236e-14
4.39962e-17
-1.88552e-14
4.42573e-17
-1.88869e-14
4.45185e-17
-1.89188e-14
4.47655e-17
-1.89507e-14
4.4989e-17
-1.89828e-14
4.51849e-17
-1.90149e-14
4.5355e-17
-1.90471e-14
4.55009e-17
-1.90794e-14
4.56314e-17
-1.91118e-14
4.5749e-17
-1.91443e-14
4.58612e-17
-1.91769e-14
4.59747e-17
-1.92096e-14
4.6096e-17
-1.92425e-14
4.62297e-17
-1.92754e-14
4.63765e-17
-1.93084e-14
4.65318e-17
-1.93415e-14
4.66851e-17
-1.93747e-14
4.68222e-17
-1.94079e-14
4.69287e-17
-1.94411e-14
4.69951e-17
-1.94742e-14
4.70198e-17
-1.95074e-14
4.70093e-17
-1.95406e-14
4.69811e-17
-1.95739e-14
4.6949e-17
-1.96071e-14
4.6928e-17
-1.96404e-14
4.69253e-17
-1.96736e-14
4.69393e-17
-1.97069e-14
4.69613e-17
-1.97401e-14
4.69785e-17
-1.97733e-14
4.69776e-17
-1.98064e-14
4.69477e-17
-1.98394e-14
4.6882e-17
-1.98723e-14
4.67787e-17
-1.99051e-14
4.66398e-17
-1.99379e-14
4.64747e-17
-1.99706e-14
4.62941e-17
-2.00032e-14
4.61112e-17
-2.00357e-14
4.59366e-17
-2.00681e-14
4.57729e-17
-2.01003e-14
4.56122e-17
-2.01323e-14
4.5438e-17
-2.0164e-14
4.52296e-17
-2.01956e-14
4.49713e-17
-2.02269e-14
4.46589e-17
-2.02579e-14
4.43037e-17
-2.02887e-14
4.39268e-17
-2.03192e-14
4.35484e-17
-2.03495e-14
4.31779e-17
-2.03794e-14
4.28053e-17
-2.0409e-14
4.2404e-17
-2.04381e-14
4.19378e-17
-2.04668e-14
4.13731e-17
-2.04949e-14
4.06856e-17
-2.05223e-14
3.98611e-17
-2.05491e-14
3.88922e-17
-2.0575e-14
3.77711e-17
-2.06e-14
3.64879e-17
-2.0624e-14
3.50301e-17
-2.06467e-14
3.33859e-17
-2.06681e-14
3.15414e-17
-2.06879e-14
2.94736e-17
-2.0706e-14
2.71424e-17
-2.0722e-14
2.44818e-17
-2.07356e-14
2.13984e-17
-2.07465e-14
1.7776e-17
-2.07541e-14
1.34792e-17
-2.07579e-14
8.34998e-18
-2.07571e-14
2.19283e-18
-2.07507e-14
-5.25055e-18
-2.07376e-14
-1.43358e-17
-2.07161e-14
-2.55613e-17
-2.06842e-14
-3.96402e-17
-2.06388e-14
-5.76272e-17
-2.05758e-14
-8.11695e-17
-2.04891e-14
-1.1301e-16
-2.03689e-14
-1.58156e-16
-2.01997e-14
-2.26714e-16
-1.99617e-14
-3.37506e-16
-1.96418e-14
-5.13428e-16
-1.92385e-14
-7.60584e-16
-1.87536e-14
-1.04902e-15
-1.81803e-14
-1.32391e-15
-1.74474e-14
-1.56813e-15
-1.6786e-14
-1.78967e-15
-1.57243e-14
-1.91521e-15
-1.51634e-14
-2.11767e-15
-1.37772e-14
-2.04518e-15
-1.36344e-14
-2.09977e-15
-1.10197e-14
-1.7178e-15
-1.14369e-14
-2.77333e-15
-7.01659e-15
-1.2029e-15
-7.97964e-15
-5.91066e-15
-1.81531e-15
3.16157e-15
5.54767e-16
-1.17147e-14
4.10303e-15
1.10375e-14
4.78907e-15
-1.25875e-14
7.16653e-15
1.24609e-14
-3.17562e-14
3.17192e-15
-1.05958e-14
9.09326e-15
-1.74211e-14
-3.93078e-15
-1.49693e-14
1.26851e-14
-1.21109e-14
-5.9519e-15
-8.78129e-15
3.87379e-15
-1.3143e-14
7.67309e-16
-1.12196e-14
3.10195e-15
-1.73796e-14
2.16153e-15
-1.59641e-14
1.85998e-15
-2.03814e-14
-1.55435e-15
-1.68423e-14
-1.73811e-15
-2.10867e-14
-3.96497e-15
-1.48275e-14
-2.19982e-15
-2.12591e-14
-4.4699e-15
-1.42031e-14
2.00773e-15
-2.15221e-14
-5.40337e-15
-1.43049e-14
8.19716e-15
-2.12696e-14
-7.12672e-15
-9.44387e-15
1.11258e-14
-2.49455e-14
-6.09118e-15
-6.47629e-15
9.55112e-15
-3.5518e-14
4.69144e-18
-1.71983e-14
1.09406e-14
-2.91723e-14
-6.31208e-15
-1.96814e-14
1.15876e-14
-2.70253e-14
-6.55444e-15
-2.06608e-14
7.47576e-15
-2.83978e-14
-2.25517e-15
-2.34523e-14
3.54256e-15
-2.93196e-14
-1.34186e-15
-2.51826e-14
4.82577e-16
-2.87961e-14
-2.28911e-15
-2.4826e-14
-1.4643e-15
-2.70031e-14
-2.73864e-15
-2.3555e-14
-1.79217e-15
-2.51731e-14
-2.54303e-15
-2.21058e-14
-1.48821e-15
-2.3433e-14
-1.94726e-15
-2.09706e-14
-9.96563e-16
-2.22628e-14
-1.1653e-15
-1.99243e-14
-7.55515e-17
-2.09443e-14
-6.8827e-16
-1.94726e-14
-3.75178e-16
-1.97818e-14
-7.86389e-16
-1.85936e-14
-7.13782e-16
-1.8478e-14
-1.06691e-15
-1.7294e-14
-1.09634e-15
-1.68381e-14
-1.39605e-15
-1.53806e-14
-1.48323e-15
-1.4568e-14
-1.93759e-15
-1.29012e-14
-2.16997e-15
-1.15127e-14
-2.54595e-15
-9.27153e-15
-2.85079e-15
-7.18979e-15
-3.50028e-15
-4.11924e-15
-4.18259e-15
-7.48159e-16
-5.30553e-15
3.30703e-15
-6.5965e-15
8.68828e-15
-8.04836e-15
1.44731e-14
-1.0064e-14
2.20183e-14
-1.20912e-14
3.14266e-14
-1.48261e-14
4.0835e-14
-1.84077e-14
5.44672e-14
-2.13977e-14
6.21124e-14
-2.3196e-14
9.29918e-14
-2.15287e-14
9.98179e-14
-3.33872e-14
1.4577e-13
-2.74034e-14
2.37976e-13
-6.75742e-14
2.11167e-13
-1.01102e-13
2.54114e-13
5.07888e-14
2.15594e-13
-3.61183e-14
1.75019e-13
6.57037e-14
1.45663e-13
5.49069e-14
1.33897e-13
3.3113e-14
1.23668e-13
2.14855e-14
1.17119e-13
1.16612e-14
1.13183e-13
5.91266e-15
1.1148e-13
2.0153e-15
1.12131e-13
-1.39753e-15
1.1555e-13
-5.58177e-15
1.22717e-13
-1.12847e-14
1.3458e-13
-1.96744e-14
1.52734e-13
-3.29617e-14
1.78421e-13
-5.49899e-14
2.12198e-13
-9.16252e-14
2.55483e-13
-1.53046e-13
-2.66356e-13
-1.078e-13
-1.04035e-13
-6.25919e-14
-7.45915e-14
-3.15907e-14
-4.78815e-14
-1.38011e-14
-2.5916e-14
-6.99646e-15
-8.8041e-15
-8.95488e-15
4.17896e-15
-1.79121e-14
1.42312e-14
-3.29087e-14
2.26287e-14
-5.36859e-14
3.061e-14
-8.04273e-14
3.93023e-14
-1.13362e-13
4.94402e-14
-1.53485e-13
6.16888e-14
-1.99413e-13
7.59307e-14
-2.49693e-13
9.14728e-14
-2.96166e-13
1.0382e-13
-3.26204e-13
1.03194e-13
-2.93994e-13
4.45013e-14
-3.44251e-13
4.65604e-14
-3.82687e-13
-1.32954e-13
-2.86863e-13
-4.13606e-14
-2.80375e-13
-1.52541e-13
-1.73741e-13
-9.07659e-14
-1.28567e-13
-6.22564e-14
-1.0519e-13
-5.43009e-14
-6.92521e-14
-3.28519e-14
-5.28898e-14
-2.73242e-14
-3.82936e-14
-2.27034e-14
-2.49795e-14
-1.79704e-14
-1.62171e-14
-1.57279e-14
-8.42013e-15
-1.3124e-14
-1.81518e-15
-1.02994e-14
3.57062e-15
-8.08535e-15
7.2673e-15
-6.41419e-15
1.09616e-14
-4.70065e-15
1.31349e-14
-3.58328e-15
1.55e-14
-2.51664e-15
1.70685e-14
-2.05503e-15
1.82207e-14
-1.85951e-15
1.93442e-14
-1.61823e-15
1.99525e-14
-1.3471e-15
2.11678e-14
-9.13748e-16
2.12835e-14
-9.18498e-16
2.22386e-14
-6.43032e-16
2.20822e-14
-6.21261e-16
2.32218e-14
-3.33308e-16
2.28203e-14
-7.1066e-16
2.42861e-14
-5.4972e-16
2.35022e-14
-1.11008e-15
2.56733e-14
-8.52909e-16
2.45166e-14
-1.72174e-15
2.72887e-14
-1.40621e-15
2.57953e-14
-2.43572e-15
2.90168e-14
-1.855e-15
2.69017e-14
-2.77614e-15
3.06523e-14
-1.50865e-15
2.71288e-14
-2.21795e-15
3.1114e-14
5.30297e-16
2.5275e-14
-1.21206e-15
3.01116e-14
3.70401e-15
2.23815e-14
-2.09305e-15
2.86519e-14
7.68395e-15
2.11589e-14
-6.29225e-15
3.06913e-14
1.1716e-14
1.81888e-14
-5.71819e-15
3.65294e-14
1.08319e-14
7.41791e-15
3.85651e-16
2.55779e-14
9.77563e-15
1.0504e-14
-5.72158e-15
2.19919e-14
1.10646e-14
1.48805e-14
-6.87181e-15
2.19851e-14
7.98984e-15
1.46415e-14
-5.28362e-15
2.17522e-14
1.76578e-15
1.54118e-14
-4.47087e-15
2.16065e-14
-2.31383e-15
1.74364e-14
-4.00183e-15
2.09359e-14
-1.79941e-15
1.66043e-14
-1.56177e-15
1.79294e-14
1.89405e-15
1.1772e-14
2.24181e-15
1.36407e-14
3.13622e-15
9.28423e-15
8.92062e-16
1.25536e-14
3.88493e-15
1.53423e-14
-5.81128e-15
1.76828e-14
1.25811e-14
1.11356e-14
-3.95559e-15
3.21568e-14
9.16855e-15
-6.61545e-15
3.23821e-15
-4.37304e-15
1.23706e-14
-3.77672e-15
-1.2416e-14
-3.13958e-16
1.09255e-14
2.11485e-15
-1.17061e-14
8.26032e-15
3.16703e-15
7.32474e-15
-5.91856e-15
1.17232e-14
-1.14248e-15
1.12898e-14
-2.74173e-15
1.39023e-14
-1.67154e-15
1.4026e-14
-2.0641e-15
1.53976e-14
-2.02065e-15
1.59433e-14
-2.10163e-15
1.69954e-14
-1.90178e-15
1.76473e-14
-1.77758e-15
1.83728e-14
-1.55692e-15
1.89382e-14
-1.31427e-15
1.94159e-14
-1.04036e-15
1.98125e-14
-7.52199e-16
2.01259e-14
-5.04912e-16
2.03576e-14
-3.28735e-16
2.05208e-14
-2.17856e-16
2.0635e-14
-1.4949e-16
2.07158e-14
-1.04742e-16
2.07731e-14
-7.33605e-17
2.08131e-14
-5.02057e-17
2.08399e-14
-3.24829e-17
2.08564e-14
-1.85896e-17
2.08648e-14
-7.55671e-18
2.08666e-14
1.27805e-18
2.0863e-14
8.42989e-18
2.0855e-14
1.43047e-17
2.08434e-14
1.91857e-17
2.08286e-14
2.3253e-17
2.08113e-14
2.6635e-17
2.07918e-14
2.94598e-17
2.07704e-14
3.1865e-17
2.07475e-14
3.39638e-17
2.07232e-14
3.58134e-17
2.06978e-14
3.74196e-17
2.06712e-14
3.87804e-17
2.06437e-14
3.99232e-17
2.06155e-14
4.09086e-17
2.05865e-14
4.17964e-17
2.0557e-14
4.26087e-17
2.05269e-14
4.3325e-17
2.04964e-14
4.39119e-17
2.04655e-14
4.43637e-17
2.04342e-14
4.4718e-17
2.04026e-14
4.50374e-17
2.03708e-14
4.53736e-17
2.03387e-14
4.57403e-17
2.03063e-14
4.61133e-17
2.02737e-14
4.64518e-17
2.02409e-14
4.67261e-17
2.02078e-14
4.69309e-17
2.01747e-14
4.70837e-17
2.01413e-14
4.72135e-17
2.01079e-14
4.73466e-17
2.00743e-14
4.74979e-17
2.00406e-14
4.7667e-17
2.00067e-14
4.7842e-17
1.99727e-14
4.80051e-17
1.99387e-14
4.81418e-17
1.99046e-14
4.82467e-17
1.98704e-14
4.83247e-17
1.98361e-14
4.83818e-17
1.98019e-14
4.84214e-17
1.97676e-14
4.84388e-17
1.97333e-14
4.84259e-17
1.96991e-14
4.83794e-17
1.96649e-14
4.83075e-17
1.96307e-14
4.82271e-17
1.95965e-14
4.81532e-17
1.95623e-14
4.80885e-17
1.95282e-14
4.802e-17
1.94942e-14
4.79261e-17
1.94602e-14
4.77979e-17
1.94263e-14
4.76401e-17
1.93925e-14
4.74815e-17
1.93588e-14
4.73555e-17
1.93252e-14
4.72813e-17
1.92917e-14
4.72501e-17
1.92582e-14
4.72255e-17
1.92248e-14
4.71601e-17
1.91915e-14
4.7018e-17
1.91583e-14
4.67932e-17
1.91252e-14
4.65109e-17
1.90922e-14
4.62162e-17
1.90594e-14