/*--------------------------------*- C++ -*----------------------------------*\
| =========                 |                                                 |
| \\      /  F ield         | OpenFOAM: The Open Source CFD Toolbox           |
|  \\    /   O peration     | Version:  2.2.1                                 |
|   \\  /    A nd           | Web:      www.OpenFOAM.org                      |
|    \\/     M anipulation  |                                                 |
\*---------------------------------------------------------------------------*/
FoamFile
{
    version     2.0;
    format      ascii;
    class       volVectorField;
    location    "3.5e-05";
    object      U;
}
// * * * * * * * * * * * * * * * * * * * * * * * * * * * * * * * * * * * * * //

dimensions      [0 1 -1 0 0 0 0];

internalField   nonuniform List<vector> 
22464
(
(0.0303991 0.368274 -2.1125e-43)
(0.0189403 0.163272 -2.69528e-47)
(0.0150266 0.0571651 0)
(0.0119598 -1.68768e-05 -2.59221e-44)
(0.00895271 -0.0293647 -1.34227e-43)
(0.00599608 -0.0410247 -1.04035e-43)
(0.00310258 -0.040386 5.73053e-45)
(-0.000114886 -0.0310254 -1.44174e-45)
(-0.00370649 -0.0151129 0)
(-0.0080367 0.00650245 -1.87396e-43)
(-0.0139151 0.0344111 1.28861e-46)
(-0.0223811 0.0707284 9.42296e-44)
(-0.0338337 0.118596 -2.94559e-44)
(-0.0520322 0.18329 -8.14081e-45)
(-0.0780559 0.273841 0)
(-0.117709 0.403331 -7.93529e-43)
(-0.169197 0.578255 -1.47765e-42)
(-0.210988 0.750714 2.66612e-42)
(-0.184454 0.790319 3.17921e-42)
(-0.203152 0.703235 0)
(-0.254775 0.403518 -4.78945e-43)
(-0.019825 0.414615 -3.70721e-42)
(-0.0832226 0.182531 0)
(-0.0275058 0.187669 -1.00876e-43)
(0.00260792 0.143057 0)
(-0.0258729 0.102057 -2.55353e-43)
(-0.00682006 0.0919532 -1.05292e-42)
(-0.00484025 0.0700756 1.56184e-44)
(-0.00540822 0.0524721 1.87826e-51)
(-0.000246261 0.0376677 -4.91435e-43)
(0.000753304 0.0219786 -1.31149e-43)
(0.000976864 0.0099805 -1.14608e-44)
(0.00144208 0.00149297 1.31621e-44)
(0.00266809 -0.00528369 -5.75595e-45)
(0.0017817 -0.0103156 -1.02318e-45)
(0.00275569 -0.0133248 5.1884e-44)
(0.00180708 -0.0153759 3.02991e-45)
(0.00240659 -0.0162002 6.13881e-45)
(0.00294581 -0.0175828 2.29368e-44)
(0.00302674 -0.0192056 1.75245e-44)
(0.00350201 -0.0206879 -6.78505e-45)
(0.00251243 -0.0214972 -1.72924e-44)
(0.00380918 -0.0219346 1.56918e-44)
(0.00276935 -0.0227345 -1.52919e-44)
(0.00398355 -0.0231108 -4.16885e-44)
(0.00234516 -0.0233663 6.88828e-52)
(0.0043854 -0.023382 3.44323e-44)
(0.00232453 -0.0240245 -6.63562e-45)
(0.00538796 -0.0247226 -9.53721e-46)
(0.00214438 -0.0260819 2.6714e-44)
(0.00677293 -0.0273428 -3.2583e-52)
(0.00261332 -0.0300348 -1.28381e-43)
(0.00860723 -0.0324921 2.73891e-44)
(0.00354599 -0.0367209 6.36285e-44)
(0.010764 -0.0402768 -2.86315e-43)
(0.00386427 -0.0449907 8.00684e-52)
(0.0129126 -0.0481666 4.25836e-43)
(0.00251769 -0.0516068 1.49412e-43)
(0.0151919 -0.0527481 1.5989e-43)
(-0.0015899 -0.0535248 3.90855e-43)
(0.0183671 -0.0519171 -2.02879e-51)
(-0.0084319 -0.0499763 -5.15658e-43)
(0.0219806 -0.0454198 7.60743e-43)
(-0.0181401 -0.0395701 2.29497e-43)
(0.0242303 -0.0297418 -4.94228e-43)
(-0.0282792 -0.0226156 -5.88306e-43)
(0.0335083 -0.0131269 -4.15419e-44)
(-0.0268616 -0.0224032 6.46515e-43)
(0.0238066 -0.00705677 5.36546e-43)
(-0.0234416 -0.0116626 -9.72479e-43)
(0.014885 0.00486905 -5.1333e-43)
(-0.0170632 0.00061688 7.02486e-43)
(0.0127831 0.0087794 3.25722e-43)
(-0.0098685 0.000612643 -4.0061e-43)
(0.0114156 0.0013137 -2.2104e-43)
(-0.00290561 -0.00973219 -7.66785e-44)
(0.0106043 -0.0139045 1.28376e-43)
(0.00158104 -0.0239922 5.61146e-45)
(0.0105715 -0.0286817 -2.38505e-44)
(0.00165065 -0.0333565 2.08835e-43)
(0.00924951 -0.0330981 1.20336e-43)
(-0.000367902 -0.0328574 -2.35012e-43)
(0.0081416 -0.0296562 -1.17146e-43)
(-0.0045369 -0.0263037 1.51631e-43)
(0.00659154 -0.0197762 -1.18908e-43)
(-0.0164326 -0.00657507 4.27511e-43)
(0.0109727 0.00316307 4.00579e-43)
(-0.0349805 0.0204644 5.49622e-43)
(0.0362442 0.0228408 -4.13158e-43)
(-0.0130954 -0.00896773 8.51623e-44)
(0.0140026 -0.00147154 -8.33207e-44)
(-0.0168269 -0.00363777 2.72295e-43)
(0.00927034 0.00833389 -1.01661e-43)
(-0.0120848 0.00425656 3.81406e-43)
(0.00584528 0.0101087 2.39275e-43)
(-0.0046329 0.00426818 0)
(0.00241194 0.00495534 -1.30347e-43)
(-0.00157427 0.00186668 -3.36815e-43)
(0.00174488 0.000855571 -6.49128e-51)
(0.000944959 -0.00251286 1.47016e-43)
(0.00229671 -0.00536283 0)
(0.00201938 -0.00853991 1.99545e-45)
(0.00267654 -0.0111285 8.23003e-45)
(0.00274576 -0.0136716 -2.5273e-45)
(0.00295918 -0.0157598 0)
(0.00301542 -0.0174764 -3.57947e-45)
(0.00297173 -0.0186931 -1.32219e-44)
(0.00290582 -0.0194182 -1.79237e-44)
(0.00286788 -0.0197929 -1.76449e-44)
(0.00286077 -0.0199821 -1.74506e-44)
(0.00286516 -0.0200916 -1.78086e-44)
(0.00287032 -0.0201645 -1.7332e-44)
(0.00287418 -0.0202144 -1.73536e-44)
(0.00287648 -0.0202474 -1.7367e-44)
(0.00287728 -0.0202675 -1.74494e-44)
(0.00287689 -0.0202773 0)
(0.00287569 -0.0202788 0)
(0.00287395 -0.0202737 -1.71126e-44)
(0.00287173 -0.0202633 -1.69934e-44)
(0.00286902 -0.0202487 0)
(0.00286587 -0.0202308 0)
(0.00286242 -0.02021 -6.60192e-53)
(0.00285882 -0.0201869 7.03826e-47)
(0.00285511 -0.0201618 -1.64738e-44)
(0.00285123 -0.0201351 -1.64075e-44)
(0.00284708 -0.0201071 0)
(0.00284264 -0.0200779 0)
(0.00283806 -0.0200477 -1.61638e-44)
(0.00283346 -0.0200165 -1.60784e-44)
(0.00282892 -0.0199845 0)
(0.00282436 -0.0199518 0)
(0.00281965 -0.0199187 0)
(0.00281476 -0.0198851 0)
(0.00280974 -0.019851 -1.57546e-44)
(0.00280472 -0.0198166 -1.56778e-44)
(0.00279979 -0.0197819 -1.5733e-44)
(0.00279495 -0.019747 -1.55597e-44)
(0.00279012 -0.0197121 0)
(0.0027852 -0.019677 0)
(0.00278016 -0.0196418 -1.54476e-44)
(0.00277502 -0.0196064 -1.54002e-44)
(0.00276987 -0.0195708 0)
(0.00276475 -0.0195349 0)
(0.00275967 -0.0194989 1.51149e-44)
(0.00275461 -0.0194628 1.51934e-44)
(0.00274954 -0.0194268 -1.51519e-44)
(0.00274444 -0.0193908 -1.5246e-44)
(0.00273932 -0.0193548 0)
(0.0027342 -0.0193187 1.29366e-46)
(0.00272907 -0.0192825 0)
(0.00272392 -0.0192462 0)
(0.00271876 -0.0192098 0)
(0.00271357 -0.0191733 -1.49296e-44)
(0.00270836 -0.0191367 -1.4882e-44)
(0.00270314 -0.0191 1.48311e-44)
(0.00269792 -0.0190633 2.95561e-44)
(0.00269272 -0.0190266 2.94449e-44)
(0.00268754 -0.01899 1.4537e-44)
(0.00268238 -0.0189534 -1.46012e-44)
(0.00267723 -0.0189168 -1.45374e-44)
(0.0026721 -0.0188804 -1.46027e-44)
(0.00266697 -0.0188442 -1.44181e-44)
(0.00266184 -0.018808 0)
(0.00265675 -0.0187719 -1.30977e-46)
(0.00265169 -0.0187359 -1.42876e-44)
(0.00264668 -0.0187001 1.30167e-46)
(0.0026417 -0.0186643 -1.28191e-46)
(0.00263672 -0.0186288 -1.41808e-44)
(0.0026317 -0.0185933 0)
(0.00262664 -0.0185579 -1.40773e-44)
(0.00262155 -0.0185224 -1.4009e-44)
(0.00261644 -0.0184868 -1.40526e-44)
(0.00261138 -0.0184513 -2.7699e-44)
(0.00260638 -0.0184158 1.23315e-46)
(0.00260146 -0.0183805 -1.24295e-46)
(0.00259662 -0.0183455 -2.72655e-44)
(0.00259181 -0.0183108 -1.34569e-44)
(0.00258703 -0.0182766 -1.35431e-44)
(0.00258226 -0.0182426 -2.70277e-44)
(0.00257751 -0.0182088 -1.33668e-44)
(0.00257278 -0.0181752 -1.34794e-44)
(0.00256808 -0.0181417 -1.34717e-44)
(0.0025634 -0.0181083 1.34675e-44)
(0.00255873 -0.0180749 2.69256e-44)
(0.00255403 -0.0180416 2.69048e-44)
(0.00254931 -0.0180083 1.33161e-44)
(0.00254456 -0.0179751 -1.33953e-44)
(0.00253979 -0.0179418 -1.33446e-44)
(0.00253503 -0.0179085 -1.33937e-44)
(0.00253031 -0.0178753 -2.64254e-44)
(0.00252563 -0.0178422 -1.31421e-44)
(0.00252101 -0.0178092 1.30743e-44)
(0.00251644 -0.0177765 1.72623e-52)
(0.00251189 -0.0177439 1.07392e-46)
(0.00250735 -0.0177116 -1.05077e-46)
(0.00250281 -0.0176794 -1.28141e-44)
(0.00249828 -0.0176474 0)
(0.00249376 -0.0176155 -1.26574e-44)
(0.00248926 -0.0175838 -1.25752e-44)
(0.00248479 -0.0175521 -1.26026e-44)
(0.00248036 -0.0175207 -2.48509e-44)
(0.00247597 -0.0174893 1.08458e-46)
(0.00247161 -0.0174581 -1.08551e-46)
(0.00246726 -0.0174271 -2.45326e-44)
(0.00246293 -0.0173963 -1.21163e-44)
(0.00245861 -0.0173656 1.21813e-44)
(0.0024543 -0.017335 1.21378e-44)
(0.00245 -0.0173046 1.08363e-46)
(0.00244572 -0.0172742 -1.20515e-44)
(0.00244145 -0.017244 1.10897e-46)
(0.00243721 -0.0172138 1.19778e-44)
(0.00243298 -0.0171838 -1.19467e-44)
(0.00242876 -0.0171538 -4.54628e-52)
(0.00242453 -0.0171239 2.37674e-44)
(0.0024203 -0.017094 -1.06443e-46)
(0.00241606 -0.0170641 -1.18015e-44)
(0.00241182 -0.0170342 -1.18583e-44)
(0.00240758 -0.0170044 -2.34054e-44)
(0.00240334 -0.0169746 1.0968e-46)
(0.00239911 -0.0169447 -1.12659e-46)
(0.00239488 -0.0169149 -1.15977e-44)
(0.00239065 -0.0168849 1.1705e-44)
(0.0023864 -0.0168549 -1.18247e-46)
(0.00238212 -0.0168248 -1.15939e-44)
(0.00237778 -0.0167944 0)
(0.00237338 -0.0167638 -1.15967e-44)
(0.00236892 -0.0167328 1.14565e-46)
(0.0023644 -0.0167015 1.15596e-44)
(0.00235983 -0.0166699 -1.15261e-44)
(0.00235523 -0.0166381 1.17979e-46)
(0.00235063 -0.0166059 -1.21008e-46)
(0.00234602 -0.0165736 -2.2843e-44)
(0.00234141 -0.0165412 -1.12748e-44)
(0.00233678 -0.0165086 -1.13939e-44)
(0.00233212 -0.0164758 -1.1395e-44)
(0.00232739 -0.0164427 0)
(0.00232258 -0.0164093 -1.14065e-44)
(0.00231767 -0.0163753 1.29347e-46)
(0.00231264 -0.0163408 1.1394e-44)
(0.0023075 -0.0163056 -1.1369e-44)
(0.00230225 -0.0162698 -1.12022e-44)
(0.0022969 -0.0162332 0)
(0.00229147 -0.0161959 -1.1216e-44)
(0.00228597 -0.0161581 -1.11465e-44)
(0.00228041 -0.0161196 -1.12051e-44)
(0.00227478 -0.0160807 -2.19922e-44)
(0.00226908 -0.0160412 -1.09185e-44)
(0.0022633 -0.0160012 -1.08402e-44)
(0.00225741 -0.0159605 -1.07613e-44)
(0.0022514 -0.0159192 2.90477e-46)
(0.00224524 -0.015877 -1.06033e-44)
(0.00223894 -0.015834 -2.10525e-44)
(0.00223248 -0.0157899 -1.04532e-44)
(0.00222585 -0.0157448 -1.03867e-44)
(0.00221906 -0.0156985 -1.03293e-44)
(0.00221211 -0.0156511 -7.60657e-62)
(0.002205 -0.0156026 -1.02494e-44)
(0.00219772 -0.0155528 -1.0228e-44)
(0.00219028 -0.0155019 2.06753e-46)
(0.00218265 -0.0154497 -1.04289e-44)
(0.0021748 -0.0153962 -1.02193e-44)
(0.00216671 -0.0153413 -1.02239e-44)
(0.00215835 -0.0152847 -4.59573e-46)
(0.00214971 -0.0152263 1.02221e-44)
(0.0021408 -0.015166 1.02103e-44)
(0.00213165 -0.0151038 2.06276e-44)
(0.00212229 -0.0150398 1.04173e-44)
(0.00211264 -0.014974 -1.01309e-44)
(0.00210252 -0.0149058 5.51499e-46)
(0.00209152 -0.0148343 9.76377e-45)
(0.00207909 -0.014757 -3.22516e-46)
(0.00206454 -0.0146708 -1.03251e-44)
(0.00204714 -0.0145717 -9.47221e-45)
(0.00202608 -0.0144554 5.01067e-46)
(0.00200006 -0.0143167 6.03859e-46)
(0.00196771 -0.0141493 7.10855e-46)
(0.00192495 -0.0139262 0)
(0.0018662 -0.0136071 -8.19805e-46)
(0.00178717 -0.0131608 7.86497e-46)
(0.00169214 -0.0126027 7.58015e-46)
(0.00160854 -0.0120542 -2.76611e-45)
(0.00151782 -0.0115847 -2.08466e-45)
(0.00139896 -0.0111126 1.17515e-45)
(0.00129241 -0.0106555 1.51035e-46)
(0.00101788 -0.00939364 -4.8434e-46)
(-0.00102818 -0.00945518 2.72995e-46)
(-0.00129763 -0.0106738 -1.41644e-45)
(-0.00140342 -0.0111328 3.63936e-47)
(-0.00152406 -0.0116687 2.2673e-45)
(-0.00162484 -0.0122558 -1.72503e-45)
(-0.0017283 -0.0128331 -9.00704e-47)
(-0.00181412 -0.0133018 -7.50634e-47)
(-0.00188001 -0.0136585 8.61003e-46)
(-0.0019305 -0.0139302 -7.3213e-46)
(-0.00196964 -0.0141431 -6.57322e-46)
(-0.00200097 -0.0143149 -5.60659e-46)
(-0.00202642 -0.014456 -4.62126e-48)
(-0.00204732 -0.0145747 -4.16014e-46)
(-0.00206457 -0.0146772 3.69821e-46)
(-0.00207923 -0.0147692 0)
(-0.00209218 -0.014855 3.16503e-46)
(-0.00210426 -0.0149372 -1.6631e-49)
(-0.00211594 -0.0150169 -1.02573e-44)
(-0.00212744 -0.0150935 -8.65325e-50)
(-0.00213867 -0.0151659 9.93499e-45)
(-0.00214941 -0.0152329 -1.02955e-44)
(-0.00215939 -0.0152935 -1.06101e-44)
(-0.00216844 -0.0153478 1.52972e-51)
(-0.00217648 -0.0153963 -1.05753e-44)
(-0.00218355 -0.01544 -2.14744e-44)
(-0.00218981 -0.0154804 -1.76439e-51)
(-0.00219549 -0.0155189 1.0489e-44)
(-0.00220082 -0.0155569 -1.5478e-46)
(-0.00220605 -0.0155955 -1.58985e-46)
(-0.00221134 -0.0156353 -1.65263e-46)
(-0.00221683 -0.0156768 1.09928e-44)
(-0.00222259 -0.0157199 1.10144e-44)
(-0.00222864 -0.0157646 -1.10243e-44)
(-0.00223494 -0.0158104 -2.2049e-44)
(-0.00224146 -0.015857 -1.10185e-44)
(-0.00224811 -0.0159041 -3.73609e-46)
(-0.00225484 -0.015951 -1.10066e-44)
(-0.00226157 -0.0159976 -1.10099e-44)
(-0.00226825 -0.0160435 -1.10236e-44)
(-0.00227483 -0.0160885 -2.20974e-44)
(-0.00228128 -0.0161324 -1.09233e-44)
(-0.00228758 -0.016175 -1.11243e-44)
(-0.00229369 -0.0162162 -1.11655e-44)
(-0.00229962 -0.016256 0)
(-0.00230535 -0.0162944 -1.13729e-44)
(-0.00231088 -0.0163315 -1.12316e-44)
(-0.00231622 -0.0163672 1.12212e-44)
(-0.00232138 -0.0164018 -1.43775e-46)
(-0.00232636 -0.0164355 -1.11556e-44)
(-0.00233119 -0.0164684 0)
(-0.00233588 -0.0165006 -1.10705e-44)
(-0.00234047 -0.0165325 -1.10402e-44)
(-0.00234498 -0.016564 -1.1144e-44)
(-0.00234943 -0.0165953 -2.207e-44)
(-0.00235383 -0.0166264 1.06407e-46)
(-0.00235821 -0.0166573 -1.03408e-46)
(-0.00236256 -0.0166879 -1.11713e-44)
(-0.00236689 -0.0167183 1.12373e-44)
(-0.0023712 -0.0167485 -1.03214e-46)
(-0.00237548 -0.0167784 -1.13623e-44)
(-0.00237973 -0.0168081 0)
(-0.00238396 -0.0168377 -1.14566e-44)
(-0.00238817 -0.0168671 1.05752e-46)
(-0.00239235 -0.0168965 1.14253e-44)
(-0.00239653 -0.016926 -1.15682e-44)
(-0.0024007 -0.0169554 1.01001e-46)
(-0.00240487 -0.0169848 -9.95695e-47)
(-0.00240904 -0.0170142 -2.34413e-44)
(-0.0024132 -0.0170435 -1.16831e-44)
(-0.00241736 -0.0170727 -1.18437e-44)
(-0.0024215 -0.0171018 9.96309e-47)
(-0.00242564 -0.0171309 2.39229e-44)
(-0.00242975 -0.01716 1.8585e-53)
(-0.00243387 -0.0171892 -1.20731e-44)
(-0.00243799 -0.0172187 1.21326e-44)
(-0.00244212 -0.0172484 -9.8955e-47)
(-0.0024463 -0.0172784 -1.22686e-44)
(-0.00245051 -0.0173086 -1.01187e-46)
(-0.00245478 -0.017339 1.24149e-44)
(-0.00245909 -0.0173695 1.24779e-44)
(-0.00246343 -0.0173999 -1.26374e-44)
(-0.00246778 -0.0174302 -2.51024e-44)
(-0.00247213 -0.0174604 1.18994e-46)
(-0.00247646 -0.0174903 -1.19823e-46)
(-0.00248076 -0.0175203 -2.50307e-44)
(-0.00248503 -0.0175503 -1.23724e-44)
(-0.00248927 -0.0175805 -1.24702e-44)
(-0.00249352 -0.017611 -1.24686e-44)
(-0.00249779 -0.0176419 0)
(-0.0025021 -0.0176732 -1.25246e-44)
(-0.00250647 -0.0177047 1.07264e-46)
(-0.0025109 -0.0177365 -1.09705e-46)
(-0.00251538 -0.0177684 4.87689e-53)
(-0.00251992 -0.0178003 1.2727e-44)
(-0.00252447 -0.0178323 -1.27574e-44)
(-0.00252903 -0.0178642 -2.55521e-44)
(-0.00253358 -0.0178961 -1.26681e-44)
(-0.00253812 -0.0179281 -1.27952e-44)
(-0.00254266 -0.0179603 -1.28068e-44)
(-0.0025472 -0.0179927 1.29413e-44)
(-0.00255176 -0.0180254 2.57111e-44)
(-0.00255636 -0.0180584 2.57938e-44)
(-0.002561 -0.0180918 1.29504e-44)
(-0.00256569 -0.0181254 -1.30159e-44)
(-0.00257043 -0.0181593 -1.30932e-44)
(-0.0025752 -0.0181934 -1.32932e-44)
(-0.00258001 -0.0182277 -2.65547e-44)
(-0.00258484 -0.0182622 -1.33782e-44)
(-0.0025897 -0.0182967 -1.35939e-44)
(-0.00259459 -0.0183313 -2.71449e-44)
(-0.00259949 -0.0183659 1.19977e-46)
(-0.00260442 -0.0184006 -1.21466e-46)
(-0.00260936 -0.0184353 -2.75727e-44)
(-0.00261431 -0.0184701 -1.37185e-44)
(-0.00261925 -0.018505 -1.38931e-44)
(-0.0026242 -0.0185401 -1.39536e-44)
(-0.00262915 -0.0185755 0)
(-0.00263412 -0.018611 -1.41105e-44)
(-0.00263911 -0.0186466 1.1698e-46)
(-0.00264413 -0.0186824 -1.18819e-46)
(-0.00264918 -0.0187181 -1.43984e-44)
(-0.00265425 -0.0187538 1.23476e-46)
(-0.00265934 -0.0187894 0)
(-0.00266441 -0.0188249 -1.46151e-44)
(-0.00266948 -0.0188604 -1.45382e-44)
(-0.00267453 -0.0188958 -1.4708e-44)
(-0.00267956 -0.0189314 -1.47551e-44)
(-0.00268458 -0.018967 1.49314e-44)
(-0.0026896 -0.0190027 2.97647e-44)
(-0.00269462 -0.0190386 2.99361e-44)
(-0.00269964 -0.0190745 1.50654e-44)
(-0.00270468 -0.0191103 -1.51665e-44)
(-0.00270973 -0.019146 -1.52609e-44)
(-0.0027148 -0.0191816 0)
(-0.00271988 -0.019217 0)
(-0.00272496 -0.0192521 0)
(-0.00273001 -0.0192871 -1.26133e-46)
(-0.00273503 -0.0193219 0)
(-0.00274 -0.0193567 -1.53239e-44)
(-0.00274491 -0.0193916 -1.54722e-44)
(-0.00274978 -0.0194264 1.55261e-44)
(-0.00275464 -0.0194611 1.57114e-44)
(-0.0027595 -0.0194958 0)
(-0.00276438 -0.0195302 0)
(-0.00276928 -0.0195644 -1.58115e-44)
(-0.00277418 -0.0195983 -1.5853e-44)
(-0.00277904 -0.019632 0)
(-0.00278386 -0.0196655 0)
(-0.00278861 -0.0196988 -1.59542e-44)
(-0.0027933 -0.019732 -1.59132e-44)
(-0.00279796 -0.0197651 -1.60924e-44)
(-0.00280259 -0.0197978 -1.61855e-44)
(-0.00280719 -0.0198301 0)
(-0.00281176 -0.0198619 0)
(-0.00281629 -0.019893 0)
(-0.00282075 -0.0199232 0)
(-0.00282511 -0.0199524 -1.65802e-44)
(-0.00282934 -0.0199805 -1.66184e-44)
(-0.00283342 -0.0200075 0)
(-0.00283731 -0.0200332 0)
(-0.002841 -0.0200575 -1.67213e-44)
(-0.00284447 -0.0200803 -1.67752e-44)
(-0.00284772 -0.0201014 -4.64618e-47)
(-0.00285074 -0.0201204 6.71394e-53)
(-0.00285352 -0.0201369 0)
(-0.00285601 -0.0201505 0)
(-0.00285813 -0.0201604 -1.71958e-44)
(-0.00285978 -0.0201658 -1.73138e-44)
(-0.00286083 -0.0201658 0)
(-0.00286118 -0.0201592 0)
(-0.00286067 -0.0201443 -1.75403e-44)
(-0.0028591 -0.0201189 -1.7792e-44)
(-0.00285625 -0.0200802 -1.7937e-44)
(-0.00285189 -0.0200241 -1.81173e-44)
(-0.00284602 -0.0199446 -1.79064e-44)
(-0.00284055 -0.0198281 -1.89419e-44)
(-0.00284625 -0.0196323 -1.94982e-44)
(-0.0028827 -0.0192518 -1.78234e-44)
(-0.00294748 -0.018522 -1.41059e-44)
(-0.0029905 -0.0173014 -3.47111e-45)
(-0.0029338 -0.0155806 0)
(-0.0027216 -0.0134851 2.5037e-45)
(-0.00264958 -0.0109339 -8.15814e-45)
(-0.0019922 -0.00833736 -2.0373e-45)
(-0.00226526 -0.00515513 0)
(-0.000922176 -0.00229492 1.27566e-43)
(-0.00172551 0.00110184 3.70023e-51)
(0.00157978 0.00219829 -3.38589e-43)
(-0.00236576 0.00536065 -2.69431e-43)
(0.00465945 0.00475474 0)
(-0.00578442 0.0106507 2.4265e-43)
(0.0121763 0.00482115 -1.36789e-43)
(-0.00926075 0.00893668 3.87852e-43)
(0.0171221 -0.00329714 -3.65376e-43)
(-0.0140359 -0.00117384 -8.3849e-44)
(0.0133787 -0.00886201 -5.23691e-43)
(-0.0364684 0.0229686 1.12283e-42)
(0.0350878 0.0207145 5.46771e-43)
(-0.0111581 0.00378187 -2.40305e-43)
(0.0167474 -0.00600045 -1.43748e-43)
(-0.00660808 -0.0193522 1.20527e-43)
(0.0046723 -0.0258454 -1.53437e-43)
(-0.00819473 -0.0290784 -3.5795e-43)
(0.00049995 -0.032155 -2.32414e-43)
(-0.00921793 -0.0323027 3.65136e-43)
(-0.00147116 -0.032536 2.05745e-43)
(-0.0105301 -0.0278105 -2.92287e-43)
(-0.00136643 -0.0231817 -1.72901e-43)
(-0.0105443 -0.013162 -2.17031e-43)
(0.00316232 -0.00922832 -7.62668e-44)
(-0.0114775 0.00171106 -2.19035e-43)
(0.0101262 0.00085316 -3.9601e-43)
(-0.0128726 0.00898238 -3.29502e-43)
(0.0174385 0.000446726 -7.15111e-43)
(-0.0150351 0.00446609 -4.8948e-43)
(0.023823 -0.0124392 9.51296e-43)
(-0.024679 -0.00717088 -5.52391e-43)
(0.0270847 -0.0217855 -4.97564e-43)
(-0.0336756 -0.0121695 -4.2015e-44)
(0.028628 -0.0214556 5.92827e-43)
(-0.0241324 -0.028606 4.95029e-43)
(0.0182445 -0.0380707 2.30954e-43)
(-0.0218087 -0.043443 -7.63882e-43)
(0.008655 -0.0476704 -5.02111e-43)
(-0.0181725 -0.0492987 1.1886e-51)
(0.00195359 -0.0506258 7.88305e-43)
(-0.0149056 -0.0495822 5.23906e-43)
(-0.00193591 -0.0483901 4.01133e-43)
(-0.01261 -0.0448517 6.57682e-43)
(-0.0031274 -0.0418758 -9.04375e-52)
(-0.0103686 -0.0374393 -7.70753e-44)
(-0.00287726 -0.0342692 2.03777e-43)
(-0.00849844 -0.0300655 1.85634e-43)
(-0.00202368 -0.0276329 -1.91549e-45)
(-0.00679289 -0.0246058 1.70321e-52)
(-0.00155927 -0.0230172 1.13766e-43)
(-0.00546294 -0.0211418 7.54245e-44)
(-0.000505215 -0.0216727 8.77886e-44)
(-0.00476603 -0.0216893 1.38364e-43)
(-0.00178866 -0.021549 -1.57837e-52)
(-0.00402039 -0.0210789 -1.36e-43)
(-0.00227263 -0.0206069 2.11359e-44)
(-0.00364396 -0.0197154 5.4338e-44)
(-0.00238664 -0.0187963 1.47901e-44)
(-0.00326502 -0.0175389 1.10626e-44)
(-0.00209618 -0.0164409 3.94483e-44)
(-0.00300139 -0.0147669 2.80797e-44)
(-0.0020463 -0.0127967 5.28759e-45)
(-0.00232768 -0.0105539 -9.25012e-45)
(-0.00138273 -0.00837017 -1.04366e-44)
(-0.00174738 -0.00567101 -2.09845e-44)
(-0.000882867 -0.00255568 -2.83579e-44)
(-0.00102955 0.00152753 -3.43732e-44)
(-0.000683653 0.00724539 -6.83796e-44)
(0.000344045 0.0140344 -7.99523e-44)
(0.000200512 0.0231504 0)
(0.001857 0.0342896 0)
(0.00315043 0.0475073 -9.92731e-52)
(0.00252775 0.0664619 0)
(0.00710774 0.0893294 0)
(0.00467176 0.118201 0)
(0.0337756 0.126153 0)
(0.000794286 0.151903 0)
(0.0548458 0.137583 5.47665e-43)
(0.0680538 0.0678937 0)
(-0.00458527 0.303822 0)
(0.160082 0.180116 0)
(0.0689799 0.277498 0)
(0.0880808 0.297675 0)
(0.0673747 0.251308 5.04102e-44)
(0.0483044 0.189733 -2.33673e-43)
(0.0315276 0.147255 -6.47371e-44)
(0.0221924 0.126713 5.47955e-45)
(0.0179179 0.118453 2.68172e-45)
(0.0161971 0.115915 5.37473e-44)
(0.0157062 0.116344 5.9635e-44)
(0.0153361 0.119419 0)
(0.0149915 0.126161 3.61025e-44)
(0.0136672 0.139334 0)
(0.0100879 0.164797 -1.5097e-43)
(0.000607641 0.214833 -4.35522e-43)
(-0.0201604 0.312452 -3.32385e-43)
(-0.0542311 0.52116 6.85845e-43)
(-0.0627733 0.911683 -5.64347e-43)
(0.151112 2.15737 -2.34437e-42)
(0.00244311 -0.0292856 2.44487e-45)
(0.00344241 -0.0475614 0)
(0.00402197 -0.06279 1.73271e-46)
(0.00428117 -0.0741771 0)
(0.00432859 -0.0815293 0)
(0.00421966 -0.0851212 0)
(0.00399438 -0.0853105 0)
(0.00371001 -0.0826127 0)
(0.00340166 -0.0775889 0)
(0.00308868 -0.0707823 0)
(0.00278166 -0.0626922 0)
(0.00248292 -0.053751 -1.84728e-47)
(0.00218621 -0.0443119 -2.50151e-50)
(0.00188841 -0.0346453 2.49541e-51)
(0.00157899 -0.0249571 2.81833e-49)
(0.00127157 -0.0153829 2.17711e-49)
(0.000948093 -0.00596843 0)
(0.0004593 0.0032232 0)
(0.00025773 0.0119891 1.41822e-49)
(0.000101911 0.0202206 2.80891e-50)
(3.27125e-06 0.0281103 -3.14331e-50)
(-5.89949e-05 0.0357138 1.03321e-50)
(-0.000102468 0.043055 0)
(-0.000133724 0.0501494 -2.64591e-51)
(-0.000157403 0.0570099 0)
(-0.000175572 0.0636485 -1.15999e-53)
(-0.000189668 0.070076 -8.63848e-56)
(-0.000200523 0.076302 0)
(-0.000208721 0.082335 -2.00401e-54)
(-0.000214674 0.0881816 -2.75851e-54)
(-0.000218707 0.0938469 0)
(-0.000221082 0.0993343 0)
(-0.000222016 0.104646 0)
(-0.000221693 0.109783 0)
(-0.000220265 0.114745 0)
(-0.000217857 0.119531 0)
(-0.000214573 0.124139 0)
(-0.000210495 0.128568 0)
(-0.000205695 0.132816 0)
(-0.000200227 0.13688 0)
(-0.000194141 0.140757 0)
(-0.000187477 0.144446 0)
(-0.000180274 0.147943 0)
(-0.000172564 0.151248 0)
(-0.00016438 0.154356 0)
(-0.000155754 0.157268 0)
(-0.000146715 0.15998 0)
(-0.000137296 0.162491 0)
(-0.000127525 0.1648 0)
(-0.000117433 0.166906 0)
(-0.000107052 0.168806 0)
(-9.64111e-05 0.170501 0)
(-8.55416e-05 0.171988 0)
(-7.44734e-05 0.173268 0)
(-6.32368e-05 0.17434 0)
(-5.18608e-05 0.175203 0)
(-4.03738e-05 0.175856 0)
(-2.88031e-05 0.176299 0)
(-1.71744e-05 0.176532 0)
(-5.51143e-06 0.176555 0)
(6.16457e-06 0.176367 0)
(1.78351e-05 0.175968 0)
(2.94851e-05 0.175359 0)
(4.11036e-05 0.17454 0)
(5.26842e-05 0.17351 0)
(6.42245e-05 0.172271 0)
(7.57274e-05 0.170822 0)
(8.72001e-05 0.169163 0)
(9.86539e-05 0.167296 0)
(0.000110102 0.165221 0)
(0.000121559 0.162939 0)
(0.000133037 0.16045 0)
(0.000144541 0.157755 0)
(0.000156067 0.154855 0)
(0.000167591 0.151751 0)
(0.000179069 0.148444 0)
(0.000190423 0.144936 0)
(0.000201539 0.141227 0)
(0.000212255 0.137321 0)
(0.000222357 0.133218 0)
(0.000231579 0.128923 0)
(0.000239595 0.124437 0)
(0.000246035 0.119764 0)
(0.000250494 0.114908 0)
(0.000252553 0.109873 0)
(0.000251814 0.104663 0)
(0.000247937 0.099282 0)
(0.000240682 0.0937332 0)
(0.000229944 0.0880183 0)
(0.000215775 0.082137 0)
(0.000198372 0.0760863 0)
(0.000178014 0.0698601 0)
(0.000154919 0.0634484 0)
(0.000129053 0.0568377 0)
(9.96261e-05 0.0500112 0)
(6.4941e-05 0.0429496 0)
(2.02064e-05 0.0356314 0)
(-4.18828e-05 0.028033 0)
(-0.000140764 0.0201234 0)
(-0.000299479 0.01184 0)
(-0.000508342 0.0029836 -1.15105e-51)
(-0.00103297 -0.00632764 -2.42955e-52)
(-0.00138165 -0.0158728 4.09016e-51)
(-0.00172048 -0.0255902 1.83111e-51)
(-0.00206535 -0.0354158 7.73102e-51)
(-0.00239918 -0.0452011 1.15228e-48)
(-0.00272849 -0.0547314 0)
(-0.00305049 -0.063733 1.90347e-47)
(-0.00336809 -0.0718544 -3.76469e-47)
(-0.00367524 -0.0786627 -1.2752e-47)
(-0.00396446 -0.0836589 -1.66726e-47)
(-0.00421646 -0.0862942 -7.17777e-46)
(-0.00440925 -0.0859952 -6.6344e-47)
(-0.00446598 -0.0822335 0)
(-0.00436977 -0.0747935 3.68369e-46)
(-0.00409636 -0.0632892 0)
(-0.00350292 -0.0479082 0)
(-0.00247991 -0.0294797 0)
(-2.00446 0.968962 0)
(-0.880674 0.151004 5.93309e-43)
(-0.711505 -0.00884846 -9.03302e-43)
(-0.388318 0.334961 7.18359e-45)
(-0.360402 0.393658 0)
(-0.0967745 -0.205642 6.92349e-45)
(0.0638496 -0.329697 -1.37052e-43)
(0.578731 0.246244 0)
(0.964998 0.674031 3.5758e-44)
(1.15943 0.990843 -1.01125e-44)
(1.0104 1.31369 0)
(0.800901 1.15577 -3.23869e-43)
(0.462638 -0.259935 -1.74303e-43)
(-0.151216 -0.791258 -1.04616e-44)
(-0.126929 -0.980347 -1.71455e-44)
(0.0808078 -1.10502 -1.23604e-44)
(0.359088 -0.902125 -9.73111e-46)
(0.485138 -0.543637 0)
(0.535261 -0.441608 5.75429e-46)
(0.602149 -0.3326 -1.09784e-46)
(0.625782 -0.230885 -6.23313e-47)
(0.655471 -0.195269 2.52389e-47)
(0.667817 -0.122201 1.96262e-46)
(0.641613 0.000557184 -3.63507e-46)
(0.651144 0.032535 2.76503e-46)
(0.65508 0.0971184 1.06477e-44)
(0.62815 0.218175 0)
(0.603499 0.215604 0)
(0.613976 0.229602 -1.53308e-44)
(0.630732 0.284124 2.16876e-45)
(0.637535 0.362917 1.42736e-44)
(0.630858 0.45298 1.41971e-44)
(0.608954 0.542628 0)
(0.569416 0.618568 2.70944e-44)
(0.51124 0.665251 2.73162e-44)
(0.43545 0.671975 0)
(0.341906 0.635426 1.79004e-45)
(0.208995 0.580974 -5.90744e-44)
(-0.00291675 -0.0310401 -1.82903e-45)
(-0.00331958 -0.031846 1.94199e-46)
(-0.00367117 -0.0328775 4.69865e-46)
(-0.00397125 -0.0341984 -2.72295e-45)
(-0.00432494 -0.0355661 1.07594e-44)
(-0.00461093 -0.0366636 4.11443e-45)
(-0.00483606 -0.0375141 7.36825e-47)
(-0.00500726 -0.0381761 8.86514e-45)
(-0.00514538 -0.0387092 9.3972e-45)
(-0.00525935 -0.0391474 9.8031e-45)
(-0.00535491 -0.039516 1.24249e-44)
(-0.00543379 -0.0398314 -6.82874e-49)
(-0.00549758 -0.040108 8.78828e-46)
(-0.00554891 -0.0403582 1.24925e-44)
(-0.00559154 -0.0405918 0)
(-0.00562934 -0.0408146 -1.11934e-44)
(-0.00566555 -0.0410286 -1.20412e-44)
(-0.00570197 -0.0412326 1.28231e-44)
(-0.00573901 -0.0414241 1.2295e-44)
(-0.00577591 -0.0416003 0)
(-0.00581138 -0.0417598 -5.24067e-46)
(-0.00584407 -0.0419027 -9.60389e-46)
(-0.005873 -0.0420306 4.42307e-46)
(-0.00589771 -0.0421466 1.28786e-44)
(-0.0059183 -0.0422542 1.29792e-44)
(-0.00593538 -0.0423573 -3.86007e-46)
(-0.00594984 -0.0424592 -3.86906e-46)
(-0.00596268 -0.0425627 -3.94989e-46)
(-0.00597486 -0.0426696 0)
(-0.0059872 -0.0427808 4.21839e-46)
(-0.00600027 -0.0428965 0)
(-0.00601441 -0.0430162 8.90471e-46)
(-0.00602975 -0.0431389 4.5071e-46)
(-0.00604624 -0.0432637 1.33434e-44)
(-0.00606371 -0.0433892 -3.50766e-52)
(-0.00608193 -0.0435142 -1.28831e-44)
(-0.00610063 -0.0436379 -1.2897e-44)
(-0.00611957 -0.0437592 -1.33358e-44)
(-0.00613853 -0.0438776 0)
(-0.00615733 -0.0439926 0)
(-0.00617583 -0.0441041 0)
(-0.00619391 -0.044212 -1.35154e-44)
(-0.0062115 -0.0443164 -1.35605e-44)
(-0.00622854 -0.0444174 -3.53735e-46)
(-0.00624498 -0.0445152 -1.35992e-44)
(-0.00626079 -0.0446101 -1.35852e-44)
(-0.00627596 -0.0447024 -3.38378e-46)
(-0.0062905 -0.0447924 -1.35004e-44)
(-0.00630444 -0.0448803 -1.34442e-44)
(-0.00631784 -0.0449663 0)
(-0.00633076 -0.0450505 -1.33548e-44)
(-0.00634329 -0.0451332 -2.70349e-46)
(-0.0063555 -0.0452145 1.33516e-44)
(-0.00636747 -0.0452945 -1.33901e-44)
(-0.00637925 -0.0453734 -1.36925e-44)
(-0.00639088 -0.0454512 -1.35278e-44)
(-0.00640237 -0.0455282 -2.72212e-44)
(-0.00641372 -0.0456046 -1.39343e-44)
(-0.00642492 -0.0456803 -1.37636e-44)
(-0.00643596 -0.0457557 -1.38245e-44)
(-0.00644684 -0.0458306 0)
(-0.00645757 -0.0459053 -1.3918e-44)
(-0.00646819 -0.0459796 -1.4204e-44)
(-0.00647874 -0.0460537 0)
(-0.00648926 -0.0461275 -1.40594e-44)
(-0.00649979 -0.046201 -1.4355e-44)
(-0.00651034 -0.0462742 0)
(-0.00652091 -0.0463472 0)
(-0.00653145 -0.0464201 0)
(-0.00654193 -0.0464929 -1.44177e-44)
(-0.00655231 -0.0465657 -2.89734e-44)
(-0.00656254 -0.0466388 -1.45531e-44)
(-0.00657264 -0.046712 -1.46203e-44)
(-0.00658264 -0.0467857 -1.46924e-44)
(-0.00659259 -0.0468596 -2.31304e-46)
(-0.00660259 -0.046934 -1.48608e-44)
(-0.00661271 -0.0470087 -3.01442e-44)
(-0.00662302 -0.0470838 -1.50436e-44)
(-0.00663356 -0.0471592 -1.51216e-44)
(-0.0066443 -0.0472349 -2.62618e-46)
(-0.0066552 -0.0473109 1.52082e-44)
(-0.00666617 -0.0473872 -1.52096e-44)
(-0.00667712 -0.0474638 -1.54624e-44)
(-0.00668798 -0.0475407 0)
(-0.0066987 -0.0476178 0)
(-0.00670929 -0.0476952 0)
(-0.00671979 -0.0477729 -1.50934e-44)
(-0.00673028 -0.0478509 -1.51191e-44)
(-0.00674083 -0.0479291 0)
(-0.00675151 -0.0480076 -1.52338e-44)
(-0.00676237 -0.0480864 -1.55575e-44)
(-0.00677341 -0.0481656 0)
(-0.00678459 -0.048245 0)
(-0.00679586 -0.0483248 0)
(-0.00680715 -0.0484049 0)
(-0.00681841 -0.0484853 0)
(-0.00682962 -0.048566 0)
(-0.00684077 -0.048647 0)
(-0.00685189 -0.0487283 -1.5794e-44)
(-0.00686302 -0.04881 -1.55668e-44)
(-0.0068742 -0.0488921 0)
(-0.00688544 -0.0489745 -1.56824e-44)
(-0.00689677 -0.0490572 -1.5762e-44)
(-0.00690818 -0.0491402 0)
(-0.00691966 -0.0492233 1.56988e-44)
(-0.00693121 -0.0493067 1.60816e-44)
(-0.00694283 -0.0493902 -1.62054e-44)
(-0.0069545 -0.0494739 -2.73713e-46)
(-0.00696624 -0.0495578 1.64424e-44)
(-0.00697804 -0.0496421 -1.65425e-44)
(-0.00698989 -0.0497268 -1.69098e-44)
(-0.00700176 -0.0498118 0)
(-0.00701365 -0.0498972 0)
(-0.00702553 -0.0499828 0)
(-0.00703741 -0.0500686 -1.68948e-44)
(-0.0070493 -0.0501545 -1.69839e-44)
(-0.00706124 -0.0502404 0)
(-0.00707325 -0.0503263 -1.72063e-44)
(-0.00708535 -0.0504121 -1.76075e-44)
(-0.00709753 -0.050498 0)
(-0.00710978 -0.050584 0)
(-0.00712206 -0.05067 -1.76314e-44)
(-0.00713433 -0.0507561 -1.77001e-44)
(-0.00714658 -0.0508423 -1.80465e-44)
(-0.00715879 -0.0509286 -1.7808e-44)
(-0.00717096 -0.0510149 0)
(-0.0071831 -0.0511011 -1.82087e-44)
(-0.00719521 -0.0511871 -1.80193e-44)
(-0.00720732 -0.0512729 1.8126e-44)
(-0.00721944 -0.0513584 3.64948e-44)
(-0.0072316 -0.0514436 3.67466e-44)
(-0.0072438 -0.0515286 1.84895e-44)
(-0.00725606 -0.0516134 -1.85823e-44)