/*--------------------------------*- C++ -*----------------------------------*\
| =========                 |                                                 |
| \\      /  F ield         | OpenFOAM: The Open Source CFD Toolbox           |
|  \\    /   O peration     | Version:  2.2.1                                 |
|   \\  /    A nd           | Web:      www.OpenFOAM.org                      |
|    \\/     M anipulation  |                                                 |
\*---------------------------------------------------------------------------*/
FoamFile
{
    version     2.0;
    format      ascii;
    class       volScalarField;
    location    "2.5e-05";
    object      alpha1;
}
// * * * * * * * * * * * * * * * * * * * * * * * * * * * * * * * * * * * * * //

dimensions      [0 0 0 0 0 0 0];

internalField   nonuniform List<scalar> 
22464
(
0.997063
0.999967
0.999981
0.999857
0.999746
0.999746
0.999753
0.99977
0.9997
0.99967
0.99967
0.99967
0.999781
0.999876
0.99971
0.999707
0.999707
0.999707
0.999717
0.999824
0.999775
0.99973
0.99973
0.99973
0.999736
0.999882
0.999893
0.999786
0.999786
0.999857
0.999979
0.999948
0.999673
0.999501
0.999501
0.999534
0.999773
0.998856
0.938818
0.503023
0.070196
0.0182317
0.00346122
0.00269202
0.00201881
0.00148142
0.00131402
0.00119204
0.00111001
0.00108892
0.00107986
0.0010903
0.00111298
0.00114539
0.00115383
0.00123341
0.00122006
0.00141321
0.00136125
0.00168069
0.00161945
0.00202039
0.00200254
0.00240458
0.00239616
0.00267819
0.00257606
0.00266284
0.00246456
0.0024407
0.00223934
0.0021824
0.00193916
0.00184407
0.00157408
0.00157824
0.00131873
0.00141506
0.00120095
0.0013819
0.00121376
0.00142922
0.00135397
0.0015376
0.00153467
0.00169345
0.00166377
0.00208847
0.00284417
0.00346292
0.00282852
0.00383491
0.00147785
0.00175566
0.000685699
0.000742855
0.000392539
0.00039449
0.000258082
0.000244619
0.000163133
0.00014287
9.43936e-05
6.67108e-05
4.05026e-05
2.10352e-05
8.58849e-06
2.42493e-06
3.9234e-07
2.61077e-08
3.16277e-10
3.38844e-13
1.84152e-17
4.24393e-22
8.90145e-27
1.70004e-31
3.01584e-36
5.09064e-41
8.41961e-46
1.39841e-50
2.3772e-55
4.16853e-60
7.48074e-65
1.34531e-69
2.36871e-74
4.01091e-79
6.38735e-84
8.41087e-89
9.33932e-94
9.60295e-99
9.29527e-104
8.50931e-109
7.40623e-114
6.15546e-119
4.9013e-124
3.74695e-129
2.75743e-134
1.96069e-139
1.35342e-144
9.11223e-150
6.01139e-155
3.90343e-160
2.50528e-165
1.59866e-170
9.81089e-176
-1.78397e-176
-2.99242e-177
-2.85881e-178
-2.02645e-179
-1.17334e-180
-5.82437e-182
-2.54894e-183
-1.00124e-184
-3.57326e-186
-1.16872e-187
-3.52748e-189
-9.88611e-191
-2.58828e-192
-6.36711e-194
-1.47938e-195
-3.26148e-197
-6.8491e-199
-1.37558e-200
-2.65441e-202
-4.9477e-204
-8.95881e-206
-1.58445e-207
-2.74974e-209
-4.69842e-211
-7.92075e-213
-1.31877e-214
-2.16888e-216
-3.52152e-218
-5.63739e-220
-8.879e-222
-1.37228e-223
-2.07585e-225
-3.06798e-227
-4.42719e-229
-6.23885e-231
-8.59293e-233
-1.15756e-234
-1.52515e-236
-1.96387e-238
-2.46873e-240
-3.02738e-242
-3.62287e-244
-4.23586e-246
-4.84813e-248
-5.44295e-250
-6.00228e-252
-6.50418e-254
-6.92186e-256
-7.22827e-258
-7.40294e-260
-7.4386e-262
-7.34228e-264
-7.13109e-266
-6.82555e-268
-6.44371e-270
-5.99912e-272
-5.50326e-274
-4.96906e-276
-4.41313e-278
-3.85511e-280
-3.31479e-282
-2.80844e-284
-2.34678e-286
-1.93478e-288
-1.57326e-290
-1.26104e-292
-9.95503e-295
-7.7356e-297
-5.91745e-299
-4.45944e-301
-3.31409e-303
-2.43073e-305
-1.76011e-307
-1.2721e-309
-2.39209e-312
0
0
0
0
0
0
0
0
0
0
0
0
0
0
0
0
0
0
0
0
0
0
0
0
0
0
0
0
0
0
0
0
0
0
0
0
0
0
0
0
0
0
0
0
0
0
0
0
0
0
0
0
0
0
0
0
0
0
0
0
0
0
0
0
0
0
0
0
0
0
0
0
0
0
0
0
0
0
0
0
0
0
0
0
0
0
0
0
0
0
0
0
0
0
0
0
0
0
0
0
0
0
0
0
0
0
0
0
0
0
0
0
0
0
0
0
0
0
0
0
0
0
0
0
0
0
0
0
0
-2.7037e-310
-3.88936e-308
-5.61065e-306
-7.96724e-304
-1.11351e-301
-1.53208e-299
-2.07628e-297
-2.7734e-295
-3.65443e-293
-4.75323e-291
-6.10483e-289
-7.7426e-287
-9.69278e-285
-1.19649e-282
-1.45514e-280
-1.74233e-278
-2.05302e-276
-2.3805e-274
-2.71684e-272
-3.05344e-270
-3.38117e-268
-3.69036e-266
-3.97056e-264
-4.21067e-262
-4.39929e-260
-4.52571e-258
-4.58117e-256
-4.56004e-254
-4.46078e-252
-4.28649e-250
-4.04419e-248
-3.74465e-246
-3.4009e-244
-3.02786e-242
-2.64112e-240
-2.25592e-238
-1.88594e-236
-1.54215e-234
-1.23293e-232
-9.63394e-231
-7.35552e-229
-5.48688e-227
-3.99945e-225
-2.85008e-223
-1.98755e-221
-1.35844e-219
-9.11503e-218
-6.0178e-216
-3.9185e-214
-2.52218e-212
-1.60744e-210
-1.0151e-208
-6.3483e-207
-3.92426e-205
-2.39018e-203
-1.42845e-201
-8.33699e-200
-4.72849e-198
-2.59361e-196
-1.36936e-194
-6.92881e-193
-3.34606e-191
-1.53601e-189
-6.67539e-188
-2.73547e-186
-1.05247e-184
-3.78454e-183
-1.26532e-181
-3.91016e-180
-1.10906e-178
-2.8621e-177
-6.64419e-176
-1.36573e-174
-2.42663e-173
-3.57435e-172
-3.98964e-171
-2.6018e-170
7.49718e-171
2.03715e-165
3.18806e-160
4.93537e-155
7.5178e-150
1.12048e-144
1.62633e-139
2.28933e-134
3.11391e-129
4.07896e-124
5.13001e-119
6.17783e-114
7.09996e-109
7.75785e-104
8.02115e-99
7.81016e-94
7.03317e-89
5.32385e-84
3.34229e-79
1.97941e-74
1.1299e-69
6.3343e-65
3.57229e-60
2.06898e-55
1.2376e-50
7.56565e-46
4.62787e-41
2.761e-36
1.56067e-31
8.16138e-27
3.8777e-22
1.67782e-17
3.16264e-13
3.0174e-10
2.53511e-08
3.85279e-07
2.39552e-06
8.51592e-06
2.09074e-05
4.03254e-05
6.64836e-05
9.42697e-05
0.000142448
0.000162855
0.000244202
0.000257842
0.000393293
0.000391148
0.000738211
0.000680038
0.00173853
0.00145932
0.00381116
0.00281165
0.00347297
0.00284665
0.0020962
0.00166685
0.00169475
0.00153724
0.00154091
0.00135737
0.00143133
0.00121475
0.00138447
0.00119814
0.00141826
0.00131343
0.00158306
0.00156784
0.0018415
0.00192706
0.0021824
0.0022299
0.00244312
0.0024536
0.0026661
0.00255425
0.0026765
0.00236525
0.00239347
0.00196538
0.0019968
0.00158198
0.00165163
0.00132859
0.00139205
0.00119623
0.00123295
0.00114828
0.00116503
0.00112696
0.00112641
0.00109726
0.0011358
0.0011173
0.00121717
0.00129122
0.00144025
0.00206631
0.00269368
0.00391481
0.0253044
0.111156
0.631434
0.968479
0.999534
0.99973
0.999503
0.999503
0.999503
0.999721
0.999965
0.99997
0.999829
0.999785
0.999785
0.999897
0.999856
0.999729
0.999729
0.999729
0.999729
0.999798
0.999777
0.999703
0.999703
0.999704
0.999703
0.999703
0.999714
0.999861
0.999762
0.999637
0.999637
0.999637
0.999649
0.999723
0.999704
0.99971
0.999857
0.999971
0.999948
0.992331
0
0
0
0
0
0
0
0
0
0
0
0
0
0
0
0
0
0
0
0
0
0
0
0
0
0
0
0
0
0
0
0
0
0
0
0
0
0
0
0
0
0
0
0
0
0
0
0
0
0
0
0
0
0
0
0
0
0
0
0
0
0
0
0
0
0
0
0
0
0
0
0
0
0
0
0
0
0
0
0
0
0
0
0
0
0
0
0
0
0
0
0
0
0
0
0
0
0
0
0
0
0
0
0
0
0
0
0
0
0
0
0
0
0
0
0
0
0
0.999309
0.999875
0.999814
0.999444
0.999658
0.999963
0.999985
0.999923
0.999673
0.998927
0.997492
0.996308
0.997294
0.99917
0.999672
0.999834
0.999855
0.999575
0.999135
0.99891
0.997829
0.995664
0.995796
0.996165
0.997081
0.997489
0.997768
0.997706
0.997455
0.9973
0.996858
0.996997
0.99641
0.996017
0.995708
0.99478
0.992897
0.992111
0
0
0
0
0
0
0
0
0
0
0
0
0
0
0
0
0
0
0
0
0
0
0
0
0
0
0
0
0
0
0
0
0
0
0
0
0
0
0
0
0
0
0
0
0
0
0
0
0
0
0
0
0
0
0
0
0
0
0
0
0
-1.18485e-310
-1.77964e-308
-2.59428e-306
-3.72584e-304
-5.27218e-302
-7.34955e-300
-1.00928e-297
-1.3654e-295
-1.81984e-293
-2.38992e-291
-3.09285e-289
-3.94457e-287
-4.95826e-285
-6.14297e-283
-7.50103e-281
-9.02343e-279
-1.06921e-276
-1.2478e-274
-1.43413e-272
-1.62329e-270
-1.80969e-268
-1.98724e-266
-2.1497e-264
-2.29089e-262
-2.405e-260
-2.48694e-258
-2.53279e-256
-2.54028e-254
-2.50818e-252
-2.43621e-250
-2.32682e-248
-2.18426e-246
-2.01432e-244
-1.82398e-242
-1.62067e-240
-1.41217e-238
-1.20592e-236
-1.00858e-234
-8.256e-233
-6.61036e-231
-5.1738e-229
-3.95619e-227
-2.95401e-225
-2.15297e-223
-1.53121e-221
-1.0626e-219
-7.19653e-218
-4.75939e-216
-3.0754e-214
-1.94406e-212
-1.20424e-210
-7.32585e-209
-4.38851e-207
-2.59384e-205
-1.51542e-203
-8.75962e-202
-5.00716e-200
-2.8245e-198
-1.56663e-196
-8.5034e-195
-4.49205e-193
-2.29637e-191
-1.12958e-189
-5.31732e-188
-2.38263e-186
-1.01096e-184
-4.04039e-183
-1.51245e-181
-5.27032e-180
-1.6976e-178
-5.01237e-177
-1.3427e-175
-3.22009e-174
-6.79131e-173
-1.22763e-171
-1.82684e-170
-2.07502e-169
-1.45423e-168
2.13911e-171
2.54409e-165
2.99127e-160
3.44997e-155
3.89902e-150
4.30342e-145
4.62112e-140
4.81002e-135
4.83675e-130
4.68369e-125
4.35395e-120
3.87371e-115
3.28978e-110
2.65959e-105
2.04064e-100
1.48104e-95
1.01345e-90
6.51385e-86
3.91859e-81
2.19607e-76
1.13995e-71
5.44765e-67
2.37974e-62
9.41995e-58
3.34272e-53
1.05069e-48
2.89e-44
6.8976e-40
1.4264e-35
1.40369e-31
1.55612e-28
5.13157e-26
1.38095e-22
6.87042e-19
2.69279e-16
1.49578e-14
2.36552e-13
1.91179e-12
9.76467e-12
3.54325e-11
9.95149e-11
2.32905e-10
4.2336e-10
1.00196e-09
1.78821e-07
6.49497e-06
7.54166e-06
4.8881e-05
4.26927e-05
0.000163212
0.000118396
0.000450149
0.00028503
0.000999806
0.000587885
0.00139959
0.000743466
0.000880914
0.000809817
0.000709815
0.00044411
0.000345516
0.000163445
0.000106883
3.60402e-05
2.09021e-05
1.05645e-05
1.18324e-05
1.03042e-05
1.3973e-05
1.47229e-05
8.08974e-05
5.15334e-05
0.000228572
0.000189489
0.000427819
0.000285604
0.000497291
0.000252237
0.000428359
0.000176981
0.000283811
9.81828e-05
0.000138175
3.96979e-05
4.73866e-05
1.45831e-05
2.29304e-05
2.29546e-05
3.28745e-05
2.97872e-05
2.94016e-05
2.72473e-05
3.02128e-05
3.25932e-05
3.55177e-05
3.31981e-05
6.63129e-05
0.00010565
0.000102003
0.000257598
0.000314584
0.000208688
0.00148861
0.00201693
0.0690264
0.615455
0.963701
0.999285
0.999853
0.999856
0.999852
0.999878
0.999922
0.999971
0.999981
0.999978
0.999973
0.999975
0.999979
0.999983
0.999983
0.999983
0.999983
0.999985
0.999986
0.999986
0.999985
0.999984
0.999983
0.999982
0.999982
0.999985
0.999983
0.999976
0.999972
0.999969
0.999971
0.999978
0.999984
0.999991
0.999997
0.999998
0.999993
0.999996
0.999998
0.999994
0.99999
0.999987
0.999985
0.999983
0.999982
0.999983
0.999986
0.999988
0.999988
0.999988
0.999986
0.999987
0.999988
0.999989
0.999989
0.999988
0.999987
0.999986
0.999986
0.999986
0.999984
0.999979
0.999975
0.999976
0.999981
0.999983
0.999966
0.999912
0.999867
0.999851
0.999879
0.999834
0.997871
0.923162
0.459579
0.0333753
0.00133826
0.0010127
0.000185816
0.000298014
0.000216984
9.64804e-05
8.88659e-05
6.60427e-05
4.09401e-05
3.79248e-05
3.46824e-05
2.81666e-05
2.53773e-05
2.56855e-05
2.60225e-05
2.73343e-05
1.74672e-05
1.61883e-05
1.25976e-05
4.21518e-05
4.27207e-05
0.000133661
0.000101646
0.000275676
0.000178084
0.000413293
0.000251433
0.000480701
0.000287218
0.000413146
0.000189604
0.000218077
4.92632e-05
7.22847e-05
1.42229e-05
1.30865e-05
1.03142e-05
1.17153e-05
1.05107e-05
2.17484e-05
3.67648e-05
0.000105994
0.000163556
0.000344058
0.000441392
0.000707055
0.000809216
0.000879145
0.000745257
0.00138617
0.000586588
0.00100454
0.000287942
0.000453066
0.000119574
0.000164353
4.33626e-05
4.9544e-05
7.83295e-06
6.87327e-06
1.80365e-07
9.7406e-10
4.1706e-10
2.30905e-10
9.95768e-11
3.58689e-11
1.00025e-11
1.98212e-12
2.48326e-13
1.59082e-14
2.89808e-16
7.464e-19
1.50853e-22
5.63011e-26
1.76022e-28
1.63993e-31
1.70937e-35
8.19324e-40
3.41268e-44
1.23765e-48
3.93521e-53
1.10933e-57
2.80462e-62
6.42676e-67
1.34656e-71
2.59763e-76
4.64169e-81
7.7275e-86
1.20419e-90
1.76275e-95
2.43312e-100
3.17703e-105
3.93834e-110
4.64688e-115
5.23411e-120
5.6431e-125
5.84129e-130
5.82359e-135
5.60996e-140
5.23949e-145
4.76205e-150
4.22787e-155
3.67897e-160
3.14794e-165
2.6552e-170
2.69085e-176
-9.39752e-175
-1.56354e-175
-1.48751e-176
-1.04442e-177
-5.94799e-179
-2.88089e-180
-1.22127e-181
-4.62097e-183
-1.58321e-184
-4.96684e-186
-1.43976e-187
-3.88605e-189
-9.83325e-191
-2.34748e-192
-5.31946e-194
-1.15111e-195
-2.39325e-197
-4.80989e-199
-9.40032e-201
-1.79633e-202
-3.37159e-204
-6.23526e-206
-1.13788e-207
-2.04892e-209
-3.63558e-211
-6.34507e-213
-1.08714e-214
-1.82433e-216
-2.99294e-218
-4.79351e-220
-7.48736e-222
-1.14001e-223
-1.69175e-225
-2.44702e-227
-3.45107e-229
-4.74785e-231
-6.37479e-233
-8.3569e-235
-1.07007e-236
-1.33897e-238
-1.63828e-240
-1.96152e-242
-2.30016e-244
-2.64393e-246
-2.98121e-248
-3.2996e-250
-3.58619e-252
-3.82859e-254
-4.01621e-256
-4.14138e-258
-4.20115e-260
-4.19492e-262
-4.12395e-264
-3.99234e-266
-3.80631e-268
-3.57371e-270
-3.30383e-272
-3.00718e-274
-2.6949e-276
-2.37804e-278
-2.06662e-280
-1.76903e-282
-1.49169e-284
-1.23901e-286
-1.01384e-288
-8.17174e-291
-6.48691e-293
-5.07143e-295
-3.90519e-297
-2.96245e-299
-2.21423e-301
-1.63073e-303
-1.18332e-305
-8.45925e-308
-5.98038e-310
-1.19605e-312
0
0
0
0
0
0
0
0
0
0
0
0
0
0
0
0
0
0
0
0
0
0
0
0
0
0
0
0
0
0
0
0
0
0
0
0
0
0
0
0
0
0
0
0
0
0
0
0
0
0
0
0
0
0
0
0
0
0
0
0
0
0
0
0
0
0
0
0
0
0
0
0
0
0
0
0
0
0
0
0
0
0
0
0
0
0
0
0
0
0
0
0
0
0
0
0
0
0
0
0
0
0
0
0
0
0
0
0
0
0
0
0
0
0
0
0
0
0
0
0
0
0
0
0
0
0
0
0
0
0
0
0
0
0
0
0
0
0
0
0
0
0
0
0
0
0
0
0
0
0
0
0
0
0
0
0
0
0
0
0
0
0
0
0
0
0
0
0
0
0
0
0
0
0
0
0
0
0
0.999999
0.999999
0.999999
0.999998
0.999995
0.999994
0.999995
0.999998
0.999998
0.999999
1
1
1
1
1
1
1
1
1
1
1
1
1
1
1
1
1
1
1
1
1
1
1
1
0.999999
0.999999
0
0
0
0
0
0
0
0
0
0
0
0
0
0
0
0
0
0
0
0
0
0
0
0
0
0
0
0
0
0
0
0
0
0
0
0
0
0
0
0
0
0
0
0
0
0
0
0
0
0
0
0
0
0
0
0
0
0
0
0
0
0
0
0
0
0
0
0
0
0
0
0
0
0
0
0
0
0
0
0
0
0
0
0
0
0
0
0
0
0
0
0
0
0
0
0
0
0
0
0
0
0
0
0
0
0
0
0
0
0
0
0
0
0
0
0
1
1
1
1
1
1
1
1
1
1
1
1
1
1
1
1
1
1
1
1
1
1
0.999999
0.999999
0.999999
0.999998
0.999997
0.999996
0.999993
0.99999
0.999991
0.999992
0.999971
0.996933
0.908599
0.421295
0.0270971
0.000874049
3.38129e-05
5.61155e-06
5.19818e-07
2.84193e-08
9.67391e-10
2.11433e-10
1.59662e-10
1.57441e-10
2.18768e-10
3.06535e-10
3.46962e-10
3.5696e-10
3.01866e-10
2.14188e-10
1.51028e-10
9.48712e-11
4.94012e-11
2.02189e-11
6.27642e-12
3.70287e-12
2.07824e-10
1.27894e-08
1.61135e-07
8.45848e-07
1.34171e-06
3.06844e-06
2.83158e-06
5.12496e-06
3.03647e-06
3.87845e-06
8.2551e-07
5.09375e-07
4.61039e-09
1.24588e-11
9.85614e-13
9.34358e-13
9.03344e-13
1.02285e-12
1.90845e-12
4.30597e-10
4.59294e-08
1.06207e-06
7.00679e-06
2.1732e-05
4.12432e-05
6.55255e-05
9.16942e-05
0.000120768
7.40703e-05
9.19323e-05
4.18667e-05
4.89419e-05
1.00179e-05
1.63464e-05
1.62509e-06
1.89248e-06
2.67988e-08
1.70861e-09
3.03934e-11
4.30173e-14
1.20976e-18
1.27839e-16
3.32101e-17
1.02138e-17
2.91383e-18
6.91951e-19
1.27034e-19
2.48241e-20
3.55951e-21
4.13547e-22
3.9734e-23
3.00542e-24
1.35311e-25
2.60929e-27
1.35048e-29
1.11868e-32
9.71705e-37
4.96197e-41
2.4024e-45
1.07299e-49
4.35946e-54
1.60877e-58
5.41051e-63
1.66792e-67
4.7373e-72
1.24606e-76
3.04912e-81
6.96384e-86
1.48977e-90
2.99585e-95
5.67951e-100
1.01776e-104
1.72808e-109
2.78682e-114
4.27741e-119
6.26236e-124
8.75788e-129
1.17144e-133
1.50116e-138
1.84531e-143
2.17926e-148
2.47486e-153
2.70651e-158
2.85333e-163
2.90162e-168
2.8439e-173
-1.5807e-177
-1.89924e-176
-3.70415e-177
-4.41986e-178
-4.01503e-179
-3.00429e-180
-1.929e-181
-1.09004e-182
-5.51722e-184
-2.53393e-185
-1.06654e-186
-4.14658e-188
-1.49874e-189
-5.06368e-191
-1.60628e-192
-4.80274e-194
-1.35814e-195
-3.64332e-197
-9.29633e-199
-2.26171e-200
-5.25801e-202
-1.1704e-203
-2.499e-205
-5.12683e-207
-1.01218e-208
-1.92584e-210
-3.53902e-212
-6.28489e-214
-1.07989e-215
-1.79736e-217
-2.90101e-219
-4.54612e-221
-6.92452e-223
-1.02603e-224
-1.48039e-226
-2.08183e-228
-2.85608e-230
-3.82588e-232
-5.00834e-234
-6.4122e-236
-8.03533e-238
-9.86288e-240
-1.18661e-241
-1.40024e-243
-1.62155e-245
-1.84404e-247
-2.06008e-249
-2.26149e-251
-2.44091e-253
-2.5922e-255
-2.70742e-257
-2.78122e-259
-2.81037e-261
-2.79362e-263
-2.73187e-265
-2.62804e-267
-2.48696e-269
-2.31505e-271
-2.11985e-273
-1.90948e-275
-1.69206e-277
-1.47514e-279
-1.26528e-281
-1.06783e-283
-8.87012e-286
-7.25207e-288
-5.83514e-290
-4.62077e-292
-3.60158e-294
-2.76333e-296
-2.08725e-298
-1.55221e-300
-1.13653e-302
-8.19368e-305
-5.82047e-307
-4.07503e-309
-9.56837e-312
0
0
0
0
0
0
0
0
0
0
0
0
0
0
0
0
0
0
0
0
0
0
0
0
0
0
0
0
0
0
0
0
0
0
0
0
0
0
0
0
0
0
0
0
0
0
0
0
0
0
0
0
0
0
0
0
0
0
0
0
0
0
0
0
0
0
0
0
0
0
0
0
0
0
0
0
0
0
0
0
0
0
0
0
0
0
0
0
0
0
0
0
0
0
0
0
0
0
0
0
0
0
0
0
0
0
0
0
0
0
0
0
0
0
0
0
-1.19605e-312
-8.05416e-310
-1.19682e-307
-1.75311e-305
-2.53028e-303
-3.59899e-301
-5.0472e-299
-6.97122e-297
-9.48217e-295
-1.27004e-292
-1.67501e-290
-2.17511e-288
-2.78093e-286
-3.50046e-284
-4.33774e-282
-5.29216e-280
-6.3575e-278
-7.5163e-276
-8.74475e-274
-1.00112e-271
-1.12774e-269
-1.24999e-267
-1.36327e-265
-1.46304e-263
-1.54507e-261
-1.60571e-259
-1.64218e-257
-1.65276e-255
-1.63684e-253
-1.59509e-251
-1.52946e-249
-1.44368e-247
-1.34055e-245
-1.22379e-243
-1.09802e-241
-9.67984e-240
-8.37913e-238
-7.11815e-236
-5.93078e-234
-4.84335e-232
-3.87402e-230
-3.0327e-228
-2.3217e-226
-1.73673e-224
-1.26833e-222
-9.03492e-221
-6.27207e-219
-4.23925e-217
-2.7871e-215
-1.78107e-213
-1.10484e-211
-6.64576e-210
-3.87209e-208
-2.18304e-206
-1.19013e-204
-6.26145e-203
-3.17484e-201
-1.54922e-199
-7.26397e-198
-3.26728e-196
-1.40723e-194
-5.7924e-193
-2.2737e-191
-8.49109e-190
-3.0089e-188
-1.00876e-186
-3.18907e-185
-9.47058e-184
-2.63061e-182
-6.79843e-181
-1.62453e-179
-3.56228e-178
-7.10065e-177
-1.27098e-175
-2.00973e-174
-2.74125e-173
-3.111e-172
-2.75744e-171
-1.62449e-170
-7.47528e-171
2.29557e-168
2.29972e-163
2.18711e-158
2.00512e-153
1.76984e-148
1.50205e-143
1.2248e-138
9.58107e-134
7.18013e-129
5.14626e-124
3.5232e-119
2.30132e-114
1.43021e-109
8.442e-105
4.72142e-100
2.49607e-95
1.24411e-90
5.82948e-86
2.55889e-81
1.04854e-76
3.9979e-72
1.41194e-67
4.59529e-63
1.37111e-58
3.72823e-54
9.2034e-50
2.0639e-45
4.26029e-41
8.33088e-37
9.86781e-33
1.22288e-29
2.40446e-27
1.25817e-25
2.80558e-24
3.72712e-23
3.91645e-22
3.41913e-21
2.41892e-20
1.25595e-19
6.90696e-19
2.93063e-18
1.03378e-17
3.37657e-17
1.29686e-16
1.15507e-18
3.1207e-14
2.23468e-11
1.38212e-09
2.6126e-08
1.85632e-06
1.59706e-06
1.62974e-05
9.94821e-06
4.91172e-05
4.19789e-05
9.31028e-05
7.42011e-05
0.000121298
9.16015e-05
6.56256e-05
4.14106e-05
2.18838e-05
7.07836e-06
1.08469e-06
4.73823e-08
4.35787e-10
1.86251e-12
1.0076e-12
8.83457e-13
9.15956e-13
9.69955e-13
5.78292e-11
6.56403e-09
6.13581e-07
8.96109e-07
4.27304e-06
3.18708e-06
5.61755e-06
2.9521e-06
3.34874e-06
1.39867e-06
9.1882e-07
1.74302e-07
1.59759e-08
2.38949e-10
4.80448e-12
9.88324e-12
3.64174e-11
9.10149e-11
1.71287e-10
2.5338e-10
3.31648e-10
4.19855e-10
4.23428e-10
3.94199e-10
3.26173e-10
2.10982e-10
1.47013e-10
1.51943e-10
2.16801e-10
5.35888e-10
8.07869e-08
1.73327e-06
1.97967e-05
9.43223e-05
0.00231167
0.0681147
0.602467
0.960127
0.999174
0.999987
0.999992
0.999991
0.999991
0.999993
0.999995
0.999997
0.999998
0.999998
0.999999
0.999999
1
1
1
1
1
1
1
1
1
1
1
1
1
1
1
1
1
1
1
1
1
1
1
1
1
1
1
1
1
1
1
1
1
1
1
1
1
1
1
1
1
1
1
1
1
1
1
1
1
1
1
1
1
1
1
1
1
1
1
1
1
1
1
1
1
1
1
1
1
1
1
1
1
1
1
1
1
1
1
1
1
1
1
1
1
1
0.999979
0.996504
0.901735
0.404825
0.0314231
0.000930709
1.55047e-05
2.1895e-07
5.9694e-09
6.51864e-10
4.38083e-11
4.34718e-12
1.72421e-12
5.7347e-13
1.764e-13
6.04792e-14
2.29038e-14
8.82724e-15
3.38229e-15
1.31129e-15
5.33131e-16
2.3833e-16
1.26061e-16
8.50999e-17
7.35925e-17
7.3379e-17
9.45286e-17
1.7574e-16
2.89253e-15
6.14252e-13
2.61929e-11
1.99847e-10
6.63947e-10
1.12893e-09
1.57215e-09
9.92148e-10
8.69266e-10
5.79176e-11
1.10615e-11
3.3444e-14
2.75472e-14
3.28312e-14
3.91951e-14
4.63681e-14
5.42619e-14
6.90775e-14
2.21882e-12
3.75657e-10
1.08274e-08
7.99403e-08
2.40728e-07
4.61531e-07
8.14503e-07
1.39978e-06
1.8301e-06
8.70286e-07
7.70534e-07
2.24543e-07
1.17011e-07
1.74294e-09
9.67701e-10
5.31803e-13
2.0119e-15
6.14851e-17
2.05886e-17
7.53723e-18
3.05349e-18
1.20601e-18
4.27384e-19
1.3407e-19
3.92463e-20
1.04175e-20
2.44907e-21
4.96673e-22
8.41605e-23
1.14829e-23
1.21016e-24
9.37991e-26
5.00588e-27
1.65408e-28
2.72372e-30
1.48234e-32
1.58584e-35
2.06665e-39
1.17762e-43
6.30878e-48
3.15848e-52
1.4605e-56
6.19234e-61
2.40509e-65
8.57717e-70
2.82089e-74
8.596e-79
2.43732e-83
6.45703e-88
1.60402e-92
3.74747e-97
8.25626e-102
1.71995e-106
3.39665e-111
6.37278e-116
1.13814e-120
1.9387e-125
3.15398e-130
4.90902e-135
7.32162e-140
1.04769e-144
1.44e-149
1.90362e-154
2.42373e-159
2.97407e-164
3.52143e-169
4.01725e-174
-3.73847e-177
-5.72647e-177
-1.24631e-177
-1.69224e-178
-1.76047e-179
-1.5131e-180
-1.11772e-181
-7.27514e-183
-4.24538e-184
-2.24955e-185
-1.09304e-186
-4.90811e-188
-2.04968e-189
-8.0028e-191
-2.93439e-192
-1.01432e-193
-3.31639e-195
-1.02862e-196
-3.03439e-198
-8.53342e-200
-2.29252e-201
-5.89471e-203
-1.45316e-204
-3.43989e-206
-7.83037e-208
-1.71633e-209
-3.62687e-211
-7.39729e-213
-1.45774e-214
-2.77836e-216
-5.12621e-218
-9.16394e-220
-1.58856e-221
-2.67238e-223
-4.36601e-225
-6.93216e-227
-1.07038e-228
-1.60831e-230
-2.35298e-232
-3.35368e-234
-4.65919e-236
-6.31242e-238
-8.34409e-240
-1.07658e-241
-1.35749e-243
-1.67392e-245
-2.0176e-247
-2.3777e-249
-2.74066e-251
-3.09093e-253
-3.41199e-255
-3.68769e-257
-3.90361e-259
-4.04833e-261
-4.11442e-263
-4.09906e-265
-4.00425e-267
-3.83647e-269
-3.60601e-271
-3.32595e-273
-3.01096e-275
-2.67609e-277
-2.33565e-279
-2.00228e-281
-1.6872e-283
-1.39739e-285
-1.13757e-287
-9.11147e-290
-7.18367e-292
-5.57051e-294
-4.24897e-296
-3.18846e-298
-2.35423e-300
-1.7106e-302
-1.22332e-304
-8.61131e-307
-5.97589e-309
-5.27173e-311
0
0
0
0
0
0
0
0
0
0
0
0
0
0
0
0
0
0
0
0
0
0
0
0
0
0
0
0
0
0
0
0
0
0
0
0
0
0
0
0
0
0
0
0
0
0
0
0
0
0
0
0
0
0
0
0
0
0
0
0
0
0
0
0
0
0
0
0
0
0
0
0
0
0
0
0
0
0
0
0
0
0
0
0
0
0
0
0
0
0
0
0
0
0
0
0
0
0
0
0
0
0
0
0
0
0
0
0
0
0
0
0
0
0
0
0
0
0
0
0
0
0
0
0
0
0
0
0
0
0
0
0
0
0
0
0
0
0
0
0
0
0
0
0
0
0
0
0
0
0
0
0
0
0
0
0
0
0
0
0
0
0
0
0
0
0
0
0
0
0
0
0
0
0
0
0
0
0
0
0
0
0
0
0
0
0
0
0
0
0
0
0
0
0
0
0
0
0
0
0
0
0
0
0
0
0
0
0
0
0
0
0
0
0
0
0
0
0
0
0
0
0
0
0
0
0
-1.06375e-311
-1.13736e-309
-1.7131e-307
-2.53537e-305
-3.69572e-303
-5.30507e-301
-7.49831e-299
-1.04342e-296
-1.42928e-294
-1.92698e-292
-2.55666e-290
-3.33763e-288
-4.28659e-286
-5.41876e-284
-6.74473e-282
-8.25392e-280
-9.92987e-278
-1.17474e-275
-1.36549e-273
-1.55912e-271
-1.7483e-269
-1.92485e-267
-2.08024e-265
-2.2063e-263
-2.29583e-261
-2.34331e-259
-2.34543e-257
-2.30143e-255
-2.21328e-253
-2.08548e-251
-1.92475e-249
-1.73941e-247
-1.53867e-245
-1.33184e-243
-1.12764e-241
-9.33557e-240
-7.56323e-238
-5.99118e-236
-4.63481e-234
-3.50016e-232
-2.57923e-230
-1.85368e-228
-1.29869e-226
-8.86484e-225
-5.89235e-223
-3.81153e-221
-2.39789e-219
-1.4662e-217
-8.70739e-216
-5.01877e-214
-2.80535e-212
-1.5195e-210
-7.96834e-209
-4.04188e-207
-1.98118e-205
-9.3741e-204
-4.27674e-202
-1.87908e-200
-7.94071e-199
-3.22282e-197
-1.25431e-195
-4.67332e-194
-1.66377e-192
-5.64831e-191
-1.82435e-189
-5.59185e-188
-1.62186e-186
-4.43676e-185
-1.14046e-183
-2.74265e-182
-6.13914e-181
-1.27126e-179
-2.41719e-178
-4.18113e-177
-6.50063e-176
-8.93828e-175
-1.06213e-173
-1.05303e-172
-8.19842e-172
-4.33368e-171
-2.90853e-171
2.71315e-169
2.3605e-164
1.92941e-159
1.51988e-154
1.15315e-149
8.41497e-145
5.89835e-140
3.96667e-135
2.55625e-130
1.57604e-125
9.28027e-121
5.21191e-116
2.78606e-111
1.41447e-106
6.80726e-102
3.09773e-97
1.32923e-92
5.36248e-88
2.02798e-83
7.16571e-79
2.35668e-74
7.18361e-70
2.01953e-65
5.21222e-61
1.23154e-56
2.6647e-52
5.31758e-48
9.91074e-44
1.7393e-39
1.37496e-35
1.31998e-32
2.47499e-30
1.52337e-28
4.64854e-27
8.75926e-26
1.13471e-24
1.08017e-23
7.93864e-23
4.69693e-22
2.32168e-21
9.89827e-21
3.73639e-20
1.27822e-19
4.07705e-19
1.15147e-18
2.91937e-18
7.2277e-18
1.94896e-17
5.87412e-17
1.38944e-15
4.58838e-13
1.04497e-09
1.82952e-09
1.19502e-07
2.27714e-07
7.76704e-07
8.75986e-07
1.86426e-06
1.41669e-06
8.15759e-07
4.58858e-07
2.40361e-07
8.06467e-08
1.11264e-08
3.99197e-10
2.46998e-12
6.7167e-14
5.23664e-14
4.47602e-14
3.78973e-14
3.17131e-14
2.66775e-14
4.08863e-14
1.81633e-11
7.85989e-11
1.12835e-09
1.21237e-09
1.96012e-09
1.35113e-09
8.04135e-10
2.46483e-10
3.74179e-11
1.05224e-12
5.44281e-15
1.60705e-16
8.29115e-17
6.92317e-17
7.04012e-17
8.29743e-17
1.24645e-16
2.37384e-16
5.3367e-16
1.32264e-15
3.43178e-15
8.91481e-15
2.29249e-14
6.03671e-14
1.72302e-13
6.00071e-13
1.50933e-12
2.99934e-12
6.52532e-10
2.16524e-08
9.1109e-08
7.31998e-07
4.47949e-05
0.00299772
0.0822192
0.61833
0.962371
0.999255
0.999997
1
1
1
1
1
1
1
1
1
1
1
1
1
1
1
1
1
1
1
1
1
1
1
1
1
1
1
1
1
1
1
1
1
1
1
1
1
1
1
1
1
1
1
1
1
1
1
1
1
1
1
1
1
1
1
1
1
1
1
1
1
1
0
1
1
1
1
1
1
1
1
1
1
1
1
1
1
1
1
1
1
1
1
1
1
1
1
1
0.999999
1
1
0.999982
0.99689
0.909197
0.424968
0.037743
0.00124197
2.77107e-05
4.53922e-07
4.63422e-09
4.7268e-11
1.92593e-11
1.94952e-11
2.06193e-11
9.82598e-12
3.27823e-12
1.146e-12
4.02629e-13
1.38796e-13
4.69995e-14
1.56764e-14
5.15969e-15
1.68683e-15
5.53728e-16
1.89e-16
7.40687e-17
4.01446e-17
3.37841e-17
3.88996e-17
8.15055e-17
1.52384e-16
2.48141e-16
4.78286e-16
1.60451e-15
5.90539e-15
1.08764e-14
1.4021e-14
1.0259e-14
8.39904e-15
4.32237e-15
5.74075e-15
7.05435e-15
8.70096e-15
1.07788e-14
1.35383e-14
1.67341e-14
1.98364e-14
2.31929e-14
4.10541e-14
9.78577e-13
1.52577e-11
7.51513e-11
1.79515e-10
3.28343e-10
6.88093e-10
1.22537e-09
1.52507e-09
6.3204e-10
3.84856e-10
3.9257e-11
5.77816e-12
9.02589e-16
2.1001e-17
6.05167e-18
2.37867e-18
7.72743e-19
2.56842e-19
7.68931e-20
2.18277e-20
5.95426e-21
1.55894e-21
3.82379e-22
8.70296e-23
1.80127e-23
3.32346e-24
5.33827e-25
7.25766e-26
8.08171e-27
7.08962e-28
4.66181e-29
2.1377e-30
6.06423e-32
8.48667e-34
3.91393e-36
3.58232e-39
4.15126e-43
2.53718e-47
1.47322e-51
7.964e-56
3.94764e-60
1.78612e-64
7.39168e-69
2.81007e-73
9.86283e-78
3.21004e-82
9.7295e-87
2.75683e-91
7.3245e-96
1.83035e-100
4.31419e-105
9.61388e-110
2.02985e-114
4.07016e-119
7.76877e-124
1.41325e-128
2.45502e-133
4.08009e-138
6.4943e-143
9.91705e-148
1.45452e-152
2.05218e-157
2.78698e-162
3.6479e-167
4.60775e-172
3.1565e-177
-2.24058e-177
-7.57243e-178
-1.32492e-178
-1.671e-179
-1.68544e-180
-1.43345e-181
-1.06109e-182
-6.98106e-184
-4.14349e-185
-2.2437e-186
-1.11823e-187
-5.16596e-189
-2.22516e-190
-8.9804e-192
-3.41015e-193
-1.22282e-194
-4.1537e-196
-1.3403e-197
-4.11847e-199
-1.20791e-200
-3.38887e-202
-9.10956e-204
-2.35013e-205
-5.82786e-207
-1.39113e-208
-3.20064e-210
-7.10621e-212
-1.52424e-213
-3.16176e-215
-6.34853e-217
-1.235e-218
-2.32951e-220
-4.26383e-222
-7.5786e-224
-1.30897e-225
-2.19841e-227
-3.59249e-229
-5.71805e-231
-8.86704e-233
-1.34023e-234
-1.97549e-236
-2.84108e-238
-3.98851e-240
-5.4683e-242
-7.32479e-244
-9.59007e-246
-1.22774e-247
-1.5375e-249
-1.88415e-251
-2.2603e-253
-2.6553e-255
-3.05566e-257
-3.4457e-259
-3.80856e-261
-4.12742e-263
-4.38681e-265
-4.57386e-267
-4.67939e-269
-4.69862e-271
-4.63155e-273
-4.48282e-275
-4.26393e-277
-3.98494e-279
-3.65909e-281
-3.30177e-283
-2.92831e-285
-2.55305e-287
-2.18851e-289
-1.84482e-291
-1.52951e-293
-1.24742e-295
-1.00094e-297
-7.90336e-300
-6.14183e-302
-4.69827e-304
-3.53839e-306
-2.62355e-308
-1.93834e-310
0
0
0
0
0
0
0
0
0
0
0
0
0
0
0
0
0
0
0
0
0
0
0
0
0
0
0
0
0
0
0
0
0
0
0
0
0
0
0
0
0
0
0
0
0
0
0
0
0
0
0
0
0
0
0
0
0
0
0
0
0
0
0
0
0
0
0
0
0
0
0
0
0
0
0
0
0
0
0
0
0
0
0
0
0
0
0
0
0
0
0
0
0
0
0
0
0
0
0
0
0
0
0
0
0
0
0
0
0
0
0
-4.74303e-311
-6.54573e-309
-9.18847e-307
-1.27071e-304
-1.73117e-302
-2.32301e-300
-3.06984e-298
-3.99445e-296
-5.11689e-294
-6.4519e-292
-8.00627e-290
-9.77602e-288
-1.17439e-285
-1.38775e-283
-1.61282e-281
-1.84318e-279
-2.071e-277
-2.28744e-275
-2.48311e-273
-2.64892e-271
-2.77833e-269
-2.86226e-267
-2.89567e-265
-2.87614e-263
-2.80408e-261
-2.68279e-259
-2.51821e-257
-2.31841e-255
-2.09298e-253
-1.85221e-251
-1.60633e-249
-1.36477e-247
-1.13557e-245
-9.25026e-244
-7.37425e-242
-5.75101e-240
-4.38597e-238
-3.2697e-236
-2.38172e-234
-1.69443e-232
-1.17683e-230
-7.97531e-229
-5.27125e-227
-3.39615e-225
-2.13271e-223
-1.30415e-221
-7.76046e-220
-4.491e-218
-2.5259e-216
-1.37979e-214
-7.31514e-213
-3.76109e-211
-1.87384e-209
-9.03847e-208
-4.21685e-206
-1.90093e-204
-8.27066e-203
-3.46887e-201
-1.40069e-199
-5.43736e-198
-2.02612e-196
-7.23568e-195
-2.47244e-193
-8.06563e-192
-2.50652e-190
-7.40239e-189
-2.07184e-187
-5.47875e-186
-1.364e-184
-3.18406e-183
-6.93593e-182
-1.4019e-180
-2.61117e-179
-4.44415e-178
-6.83797e-177
-9.37926e-176
-1.12498e-174
-1.14666e-173
-9.47246e-173
-5.78612e-172
-2.08066e-171
-1.28731e-171
2.83118e-167
2.17012e-162
1.60291e-157
1.1396e-152
7.7936e-148
5.11918e-143
3.22584e-138
1.94682e-133
1.12403e-128
6.19713e-124
3.25619e-119
1.62815e-114
7.7301e-110
3.47747e-105
1.47932e-100
5.93564e-96
2.24024e-91
7.92934e-87
2.62421e-82
8.08926e-78
2.3127e-73
6.10513e-69
1.48047e-64
3.28232e-60
6.63746e-56
1.22893e-51
2.1146e-47
3.45629e-43
3.06647e-39
3.43757e-36
7.59754e-34
5.49889e-32
1.95485e-30
4.28983e-29
6.55648e-28
7.50511e-27
6.76396e-26
4.99071e-25
3.11567e-24
1.69281e-23
8.19697e-23
3.60874e-22
1.47387e-21
5.63949e-21
2.07076e-20
7.30353e-20
2.45291e-19
7.41873e-19
2.28604e-18
5.87484e-18
1.91376e-17
8.68945e-16
6.07376e-12
4.07921e-11
3.87517e-10
6.38154e-10
1.59269e-09
1.27556e-09
7.04882e-10
3.26603e-10
1.77845e-10
7.51615e-11
1.5446e-11
1.00361e-12
4.07911e-14
2.24325e-14
1.91583e-14
1.61627e-14
1.30705e-14
1.03948e-14
8.38209e-15
6.81146e-15
5.49817e-15
4.36919e-15
1.14923e-14
1.43549e-14
2.06913e-14
1.60574e-14
8.92073e-15
2.42011e-15
5.25082e-16
2.38563e-16
1.43463e-16
7.6072e-17
3.68776e-17
3.27011e-17
3.92956e-17
7.34216e-17
1.87644e-16
5.46067e-16
1.6451e-15
4.97898e-15
1.50575e-14
4.5533e-14
1.36442e-13
4.01539e-13
1.15902e-12
3.45521e-12
1.06482e-11
2.02053e-11
2.00268e-11
2.39385e-11
1.13953e-10
1.40465e-08
1.56894e-06
9.8737e-05
0.0044485
0.105647
0.667056
0.970434
0.999463
0.999998
1
1
1
1
1
1
1
1
1
1
1
1
1
1
1
1
1
1
1
1
1
1
1
1
1
1
1
1
0
0
0
0
0
0
0
0
0
0
0
0
0
0
0
0
0
0
0
0
0
0
0
0
0
0
0
0
0
0
0
0
0
0
0
0
0
0
0
0
0
0
0
0
0
0
0
0
0
0
0
0
0
0
0
0
0
0
0
0
0
0
0
0
0
0
0
0
0
0
0
0
0
0
0
0
0
0
0
0
0
0
0
0
0
0
0
0
0
0
0
0
0
0
0
0
0
0
0
0
0
0
0
0
0
0
0
0
0
1
1
1
1
1
1
1
1
1
1
1
1
1
1
1
1
1
1
1
1
1
1
1
1
1
1
1
1
1
1
1
1
1
1
1
1
1
1
1
1
1
1
1
1
1
1
1
1
1
1
1
1
1
1
1
1
1
1
1
1
0
0
0
0
0
0
0
0
0
0
0
0
0
0
0
0
0
0
0
0
0
0
0
0
0
0
0
0
0
0
0
0
0
0
0
0
0
0
0
0
0
0
0
0
0
0
0
0
0
0
0
0
0
0
0
0
0
0
0
0
0
0
0
0
0
0
0
0
0
0
0
0
0
0
0
0
0
0
0
0
0
0
0
0
0
0
0
0
0
0
0
0
0
0
0
0
0
0
0
0
0
0
0
0
0
0
0
0
0
0
0
0
0
0
0
0
0
0
0
0
0
0
0
0
0
0
0
0
0
0
0
0
0
0
0
0
0
0
0
0
0
0
0
0
0
0
0
0
0
0
0
0
0
0
0
0
0
0
0
0
0
-1.1565e-310