/*--------------------------------*- C++ -*----------------------------------*\
| =========                 |                                                 |
| \\      /  F ield         | OpenFOAM: The Open Source CFD Toolbox           |
|  \\    /   O peration     | Version:  2.2.1                                 |
|   \\  /    A nd           | Web:      www.OpenFOAM.org                      |
|    \\/     M anipulation  |                                                 |
\*---------------------------------------------------------------------------*/
FoamFile
{
    version     2.0;
    format      ascii;
    class       volScalarField;
    location    "2.5e-05";
    object      p;
}
// * * * * * * * * * * * * * * * * * * * * * * * * * * * * * * * * * * * * * //

dimensions      [1 -1 -2 0 0 0 0];

internalField   nonuniform List<scalar> 
22464
(
-268.626
-1130.27
-1179.24
-1290.71
-1406.69
-1608.73
-1828.26
-2054.7
-2247.56
-2457.37
-2679.44
-2897.55
-3170.95
-3414.53
-3567.83
-3772.28
-3975.71
-4167.37
-4356.92
-4577.53
-4724.48
-4855.78
-4996.49
-5125.64
-5241.79
-5408.59
-5497.53
-5522.65
-5566.85
-5636.25
-5632.56
-5589.96
-5407.77
-5123.33
-4765.18
-4068.69
-2683.85
-301.952
2071.09
1897.09
-280.297
18.8934
142.174
139.909
164.942
143.973
144.715
148.391
147.782
150.562
152.996
155.05
157.465
158.852
157.905
160.36
156.341
166.143
158.053
176.947
167.383
192.78
187.04
215.979
212.658
235.034
224.286
229.052
211.906
209.139
196.04
193.757
177.914
172.987
156.41
159.143
142.236
148.958
133.221
143.292
127.556
138.275
128.181
136.134
132.359
135.808
131.44
152.081
244.425
325.905
247.938
408.908
137.471
148.17
100.229
101.316
91.51
93.4224
89.5853
90.9045
87.219
87.0902
84.2904
82.5539
80.7548
79.2214
78.1161
77.346
76.7377
76.1625
75.5906
75.0212
74.4546
73.8901
73.3279
72.768
72.2101
71.6536
71.0979
70.5432
69.9906
69.441
68.8945
68.3502
67.8077
67.2667
66.7276
66.1907
65.6558
65.1227
64.5912
64.0615
63.5337
63.0074
62.4822
61.9576
61.4337
60.9113
60.3911
59.8734
59.3575
58.8425
58.3279
57.8138
57.3011
56.7903
56.2818
55.7754
55.2705
54.7669
54.2646
53.764
53.2651
52.7677
52.2716
51.7764
51.2824
50.7901
50.3
49.8124
49.3271
48.8436
48.3614
47.8805
47.4008
46.9226
46.4461
45.9713
45.4982
45.0267
44.557
44.0892
43.6234
43.1596
42.6977
42.2371
41.7775
41.3189
40.8613
40.4051
39.9508
39.4987
39.0487
38.6004
38.1533
37.707
37.2613
36.8164
36.3728
35.9309
35.4908
35.0526
34.6157
34.1798
33.7446
33.31
32.8763
32.4437
32.0126
31.5831
31.1553
30.7289
30.3038
29.8799
29.4571
29.0356
28.6156
28.1971
27.7802
27.3648
26.9509
26.5383
26.1271
25.7173
25.3091
24.9028
24.4986
24.0964
23.6963
23.2979
22.9011
22.5058
22.1119
21.7194
21.3286
20.9397
20.5528
20.168
19.785
19.4037
19.0235
18.6443
18.2657
17.8877
17.5102
17.1333
16.757
16.3812
16.0059
15.6308
15.2557
14.8804
14.5049
14.1294
13.7542
13.3796
13.0061
12.6339
12.2631
11.8936
11.525
11.1568
10.7884
10.4196
10.0501
9.68008
9.30999
8.94045
8.57222
8.20602
7.84247
7.48197
7.12464
6.77036
6.41882
6.06959
5.72219
5.37617
5.03118
4.68695
4.34345
4.00094
3.6601
3.32211
2.98856
2.6612
2.34108
2.02839
1.72063
1.41477
1.10854
0.81136
0.535613
0.299287
0.0781421
0.0830794
0.314675
0.56249
0.846803
1.14589
1.44777
1.75133
2.05883
2.37248
2.69258
3.01829
3.34826
3.68108
4.01568
4.35165
4.68917
5.02881
5.37119
5.71675
6.06575
6.41816
6.7738
7.13236
7.49347
7.85677
8.22193
8.58865
8.95669
9.32581
9.69582
10.0665
10.4378
10.8094
11.1813
11.5534
11.9256
12.298
12.6706
13.0437
13.4173
13.7918
14.1674
14.5443
14.9227
15.3027
15.6844
16.0675
16.4521
16.8378
17.2245
17.6118
17.9994
18.3872
18.775
19.1627
19.5505
19.9386
20.3272
20.7167
21.1076
21.5003
21.895
22.292
22.6913
23.0928
23.4962
23.9014
24.3079
24.7154
25.124
25.5335
25.9441
26.3562
26.7701
27.186
27.6041
28.0244
28.4467
28.8708
29.2961
29.7222
30.1489
30.5759
31.0031
31.4306
31.8587
32.2875
32.7172
33.1479
33.5797
34.0126
34.4464
34.8811
35.3164
35.7523
36.1886
36.6254
37.0627
37.5005
37.939
38.3781
38.8182
39.2592
39.7012
40.1445
40.5889
41.0347
41.4819
41.9305
42.3806
42.8323
43.2856
43.7404
44.1968
44.6548
45.1145
45.5759
46.0391
46.5041
46.971
47.4396
47.91
48.3819
48.8555
49.3308
49.8078
50.2867
50.7677
51.2509
51.7362
52.2237
52.713
53.2042
53.697
54.1916
54.6878
55.1861
55.6864
56.1889
56.6935
57.2002
57.7086
58.2189
58.731
59.2449
59.7607
60.2782
60.7974
61.318
61.8401
62.3636
62.8887
63.4157
63.9445
64.4751
65.0076
65.5417
66.0776
66.6154
67.1552
67.6971
68.2411
68.7872
69.3352
69.8852
70.4373
70.9914
71.5477
72.1059
72.6661
73.228
73.7916
74.3571
74.9247
75.4949
76.0668
76.6415
77.2487
78.0166
79.1188
80.6485
82.4463
84.1957
86.9769
87.1181
90.8076
89.4974
93.2977
91.3482
101.009
99.811
146.785
136.044
403.923
245.836
328.976
245.018
152.214
131.26
135.449
132.203
136.053
128.072
138.039
127.217
143.012
132.587
148.677
141.344
159.016
155.41
172.051
176.235
193.021
194.677
208.706
210.55
228.956
221.952
234.677
209.63
214.689
183.586
190.17
163.769
173.564
154.489
162.907
152.888
158.392
155.363
158.191
156.488
155.586
152.195
151.517
144.91
146.158
137.233
135.649
157.751
126.198
132.382
-153.475
-361.544
2276.11
329.113
-2095.92
-3610.72
-4396.2
-4775.46
-4938.03
-5111.32
-5195.07
-5194.5
-5155.24
-5091.32
-5051.01
-5037.92
-4961.32
-4824.48
-4739.39
-4645.76
-4543.89
-4460.17
-4327.2
-4158.24
-4017.65
-3869.35
-3708.39
-3536.14
-3365.54
-3231.5
-3005.09
-2735.42
-2516.05
-2276.18
-2019.84
-1769.74
-1459.56
-1156.53
-948.526
-740.653
-686.98
1950.71
0.105686
0.117253
0.119162
0.117245
0.128773
0.155742
0.165482
0.168751
0.170355
0.171602
0.172657
0.173573
0.174355
0.174936
0.175229
0.175197
0.174862
0.174281
0.173522
0.17264
0.171678
0.170663
0.169611
0.168533
0.167434
0.166319
0.165192
0.164055
0.16291
0.161759
0.160605
0.159448
0.158288
0.157128
0.155969
0.154814
0.153665
0.152523
0.151391
0.150272
0.149172
0.148092
0.147039
0.146016
0.145029
0.144083
0.143182
0.142329
0.141529
0.140785
0.140099
0.139474
0.138911
0.138411
0.137976
0.137607
0.137303
0.137066
0.136894
0.136788
0.136748
0.136772
0.136861
0.137013
0.137228
0.137504
0.137839
0.138233
0.138683
0.139189
0.139749
0.140363
0.14103
0.141751
0.142525
0.143353
0.144236
0.145172
0.146165
0.147212
0.148313
0.149467
0.15067
0.151921
0.153214
0.154543
0.1559
0.157276
0.15866
0.160042
0.161408
0.162748
0.164055
0.165321
0.166547
0.167733
0.168885
0.170004
0.171089
0.172126
0.173087
0.173923
0.174565
0.174931
0.17495
0.174593
0.17389
0.172806
0.171249
0.169155
0.166835
0.163652
0.15424
0.124122
0.113209
0.119784
0.121069
0.110663
-150.83
-49.4574
-84.9241
-41.7598
-136.875
-205.612
-227.672
-259.688
-267.504
-228.694
-29.3598
278.548
-22.1086
-348.229
-403.118
-442.823
-475.919
-476.974
-422.881
-416.044
-287.533
177.396
118.103
63.3211
-80.9969
-122.073
-157.767
-151.472
-122.151
-119.891
-63.318
-137.173
-76.95
-64.9498
-91.803
-33.156
336.145
624.665
0.358828
0.617497
0.895446
1.18061
1.47185
1.76792
2.07065
2.38104
2.69852
3.02194
3.35
3.68142
4.01516
4.35077
4.68832
5.0282
5.37086
5.71666
6.06577
6.41819
6.77375
7.13219
7.4932
7.85644
8.2216
8.58838
8.95653
9.3258
9.69599
10.0669
10.4383
10.81
11.182
11.5541
11.9262
12.2985
12.671
13.0439
13.4174
13.7917
14.1672
14.544
14.9223
15.3022
15.6838
16.0669
16.4515
16.8373
17.2239
17.6112
17.9988
18.3866
18.7743
19.1619
19.5495
19.9374
20.3259
20.7153
21.1061
21.4987
21.8934
22.2904
22.6897
23.0913
23.4949
23.9
24.3065
24.714
25.1225
25.5319
25.9424
26.3544
26.7682
27.1841
27.6023
28.0227
28.4451
28.8692
29.2946
29.7207
30.1474
30.5743
31.0014
31.4288
31.8568
32.2856
32.7153
33.146
33.5779
34.0108
34.4447
34.8793
35.3146
35.7505
36.1868
36.6235
37.0607
37.4985
37.9369
38.376
38.816
39.257
39.699
40.1422
40.5866
41.0323
41.4794
41.928
42.3781
42.8297
43.283
43.7378
44.1941
44.6521
45.1118
45.5731
46.0363
46.5013
46.9682
47.4368
47.9071
48.3791
48.8526
49.3278
49.8047
50.2835
50.7645
51.2477
51.733
52.2204
52.7098
53.2008
53.6936
54.1879
54.6841
55.1823
55.6826
56.1851
56.6897
57.1962
57.7046
58.2148
58.7268
59.2406
59.7564
60.2739
60.793
61.3135
61.8354
62.3587
62.8837
63.4105
63.9392
64.4697
65.0019
65.5358
66.0714
66.609
67.1485
67.6902
68.2339
68.7795
69.3271
69.8765
70.428
70.9814
71.5368
72.0941
72.6529
73.2131
73.7744
74.3368
74.9001
75.4635
76.0248
76.5758
77.1047
77.612
78.1154
78.6325
79.1872
79.6388
80.3423
80.6738
81.5927
81.6468
82.9751
82.1711
85.0177
82.0861
92.0958
83.468
106.677
92.3291
119.551
94.4757
101.273
104.828
99.1767
92.856
92.4717
92.213
92.9131
93.0624
94.0543
93.7971
95.0818
94.9603
96.579
96.6567
98.3567
98.517
100.294
100.5
104.355
102.529
105.973
103.338
106.106
104.096
106.313
104.908
106.622
105.839
107.364
106.897
108.307
108.005
109.131
108.979
109.728
109.608
110.185
109.851
109.979
109.785
108.027
108.83
104.423
98.3183
104.723
55.0558
62.2809
-12.4748
-244.117
-1438.94
-2852.59
-3971.86
-4476.26
-4777.21
-4968.51
-5063.22
-5117.36
-5142.87
-5140.13
-5116.84
-5075.38
-5020.26
-4958.42
-4881.72
-4795.77
-4698.48
-4590.15
-4472.95
-4347.02
-4211.66
-4067.01
-3913.53
-3752.36
-3584.14
-3405.02
-3214.39
-3017.51
-2805.54
-2579.69
-2340.26
-2086.28
-1817.67
-1537.58
-1252.64
-967.619
-685.206
-424.893
-1139.91
-1241.91
-1377.32
-1537.31
-1721.23
-1921.38
-2132.9
-2349.82
-2568.99
-2789.94
-3011.18
-3229.55
-3441.73
-3653.5
-3857.69
-4053.77
-4245.1
-4427.76
-4600.95
-4764.56
-4917.92
-5059.49
-5187.23
-5302.24
-5402.41
-5481.74
-5547.54
-5588.97
-5600.49
-5572.88
-5493.8
-5359.42
-5143.09
-4751.9
-4172.84
-3229.08
-1788.05
-602.584
-135.541
34.8598
81.53
74.5983
110.429
102.364
108.447
111.443
111.057
112.392
112.495
112.27
112.199
111.677
111.506
110.714
110.737
109.559
109.749
108.364
108.666
107.168
107.78
106.124
107.29
105.155
106.831
104.249
106.541
103.368
104.873
101.219
100.853
99.1172
98.8443
97.1783
97.0272
95.4167
95.481
94.1963
94.3868
93.3996
93.2335
92.5043
92.7478
93.095
99.3388
105.122
101.491
94.7367
118.98
92.3832
106.946
83.6559
92.3585
82.2286
85.176
82.2916
83.0945
81.7578
81.7001
80.7786
80.4466
79.7383
79.2863
78.7295
78.2122
77.7085
77.2009
76.6716
76.1204
75.5597
74.9971
74.4347
73.8732
73.3133
72.7552
72.1986
71.6428
71.0876
70.5335
69.9817
69.433
68.8871
68.3432
67.8008
67.26
66.7213
66.1848
65.6501
65.1171
64.5857
64.0563
63.5288
63.0028
62.4776
61.9528
61.4288
60.9065
60.3868
59.8694
59.3537
58.8386
58.3238
57.8096
57.2969
56.7864
56.2782
55.7718
55.2669
54.7633
54.2611
53.7607
53.262
52.7647
52.2685
51.7732
51.2791
50.7868
50.2969
49.8095
49.3244
48.841
48.3588
47.8778
47.3981
46.9199
46.4434
45.9687
45.4956
45.0241
44.5544
44.0866
43.6209
43.1574
42.6955
42.235
41.7754
41.3166
40.8588
40.4026
39.9484
39.4965
39.0467
38.5986
38.1515
37.7051
37.2592
36.8143
36.3707
35.9289
35.489
35.0509
34.6142
34.1783
33.743
33.3083
32.8744
32.4418
32.0108
31.5814
31.1537
30.7274
30.3023
29.8784
29.4555
29.034
28.6139
28.1955
27.7786
27.3634
26.9495
26.5369
26.1256
25.7157
25.3076
24.9013
24.4971
24.0951
23.695
23.2967
22.9
22.5047
22.1107
21.7181
21.3273
20.9385
20.5517
20.167
19.7842
19.403
19.0229
18.6437
18.2651
17.887
17.5095
17.1326
16.7564
16.3808
16.0056
15.6306
15.2556
14.8802
14.5047
14.1291
13.7538
13.3792
13.0057
12.6337
12.2631
11.8938
11.5255
11.1574
10.7892
10.4203
10.0507
9.68053
9.31023
8.9405
8.57212
8.20587
7.84235
7.48196
7.12478
6.77065
6.41922
6.06999
5.72248
5.37626
5.03104
4.68668
4.34329
4.00128
3.66143
3.32488
2.99306
2.66744
2.34934
2.03966
1.73708
1.43965
1.14749
0.863045
0.592197
0.343678
0.364557
0.369087
0.376177
0.412893
0.458194
0.47874
0.488855
0.495433
0.500662
0.505221
0.509551
0.51385
0.517902
0.521372
0.524095
0.526096
0.527514
0.52851
0.529219
0.529735
0.530116
0.530393
0.530585
0.530704
0.530758
0.530754
0.530697
0.530591
0.530441
0.530249
0.530015
0.529737
0.529416
0.529054
0.528652
0.52821
0.527729
0.52721
0.526656
0.526072
0.525463
0.524836
0.524197
0.523553
0.522912
0.522281
0.521664
0.521067
0.520494
0.519946
0.519426
0.518935
0.518472
0.518039
0.517633
0.517255
0.516902
0.516575
0.516272
0.515992
0.515733
0.515495
0.515278
0.51508
0.5149
0.514736
0.514589
0.514458
0.514344
0.514248
0.514173
0.514126
0.514112
0.514136
0.514207
0.514332
0.51452
0.514779
0.515113
0.515528
0.516025
0.516604
0.517263
0.517995
0.518787
0.519624
0.520483
0.521339
0.522161
0.522919
0.523583
0.524129
0.524542
0.524816
0.524959
0.524985
0.52491
0.524739
0.524454
0.524
0.523271
0.522103
0.520285
0.517628
0.514092
0.509849
0.505367
0.501186
0.497676
0.494675
0.491123
0.47778
0.420085
0.372881
0.374187
0.376984
-386.773
-408.03
-453.352
-486.97
-517.882
-549.982
-590.488
-632.312
-676.926
-715.527
-741.428
-750.146
-762.17
-770.746
-786.574
-818.841
-850.652
-857.288
-860.317
-863
-830.483
-803.22
-745.51
-713.153
-686.933
-681.722
-692.615
-709.639
-731.696
-743.002
-764.198
-795.595
-830.579
-866.935
-953.121
-1079.44
0.626809
0.640353
0.65181
0.704801
0.762933
0.784189
0.795523
0.804709
0.812592
0.819794
0.827157
0.834965
0.842616
0.849338
0.854806
0.859095
0.862473
0.865217
0.867541
0.869579
0.871409
0.873068
0.874578
0.875952
0.877205
0.878346
0.879383
0.880323
0.881173
0.881937
0.882614
0.883202
0.883701
0.884113
0.884437
0.884674
0.884824
0.884888
0.884871
0.884777
0.884614
0.884389
0.884112
0.883794
0.883443
0.883069
0.882677
0.882276
0.881867
0.881454
0.881038
0.88062
0.880199
0.879773
0.879341
0.878898
0.878444
0.877976
0.877493
0.876994
0.876475
0.875936
0.875376
0.874795
0.87419
0.87356
0.872907
0.872231
0.871535
0.870823
0.870102
0.869382
0.868675
0.867991
0.867346
0.866754
0.866231
0.865789
0.865438
0.865189
0.865047
0.865015
0.865089
0.865261
0.865514
0.865822
0.866152
0.866464
0.866709
0.866836
0.866796
0.866545
0.866057
0.86532
0.864347
0.863165
0.861809
0.860301
0.858633
0.856741
0.854476
0.851572
0.84766
0.842378
0.835566
0.827693
0.819882
0.813339
0.808186
0.80322
0.798789
0.792751
0.719703
0.646613
0.650439
0.64799
-1234.29
-1396.84
-1569.24
-1757.91
-1959.04
-2168.27
-2382.4
-2599.16
-2817.1
-3034.57
-3249.66
-3460.96
-3668.3
-3869.94
-4064.97
-4253.22
-4433.55
-4605.01
-4766.83
-4918.03
-5057.38
-5183.6
-5295.7
-5391.84
-5469.43
-5527.2
-5561.11
-5566
-5536.74
-5464.08
-5331.15
-5117.65
-4816.49
-4333.43
-3276.68
-1312.11
-69.5402
65.3238
111.332
112.316
98.668
104.184
105.455
108.149
110.128
110.978
111.646
111.907
111.855
111.755
111.475
111.123
110.68
110.264
109.72
109.265
108.66
108.191
107.56
107.142
106.467
106.059
105.355
104.88
104.149
103.509
102.569
101.961
101.075
100.4
99.493
98.6695
97.7111
96.9372
96.1031
95.4925
94.8655
94.4744
94.1018
93.8977
93.3663
92.7495
92.058
90.8535
89.5539
92.1019
89.5817
89.571
89.8858
89.0085
84.0112
86.1094
83.4159
84.2339
83.1364
82.8312
82.1483
81.5993
80.9831
80.4257
79.8506
79.3068
78.7651
78.2313
77.7034
77.1735
76.6347
76.0861
75.5311
74.9731
74.4138
73.8548
73.2969
72.7404
72.1849
71.6297
71.0749
70.5215
69.9708
69.4231
68.8777
68.334
67.7917
67.2513
66.7131
66.1769
65.6424
65.1094
64.5782
64.0491
63.522
62.9961
62.4708
61.9458
61.4218
60.8999
60.3807
59.8637
59.348
58.8327
58.3176
57.8034
57.2909
56.7808
56.2728
55.7665
55.2615
54.7579
54.2559
53.7557
53.2572
52.7601
52.2637
51.7682
51.2741
50.782
50.2924
49.8054
49.3204
48.837
48.3547
47.8736
47.3939
46.9158
46.4394
45.9648
45.4917
45.0201
44.5503
44.0826
43.6172
43.1538
42.6922
42.2317
41.772
41.313
40.855
40.3987
39.9447
39.493
39.0434
38.5954
38.1483
37.7018
37.2559
36.8109
36.3674
35.9258
35.4862
35.0483
34.6115
34.1756
33.7401
33.3053
32.8714
32.4388
32.0079
31.5787
31.1511
30.7249
30.2998
29.8758
29.4529
29.0313
28.6112
28.1928
27.7761
27.3609
26.947
26.5344
26.1231
25.7132
25.305
24.8988
24.4948
24.0929
23.6929
23.2947
22.8979
22.5025
22.1084
21.7159
21.3251
20.9363
20.5497
20.1651
19.7825
19.4013
19.0212
18.6419
18.2632
17.885
17.5075
17.1306
16.7545
16.379
16.004
15.629
15.254
14.8786
14.503
14.1273
13.752
13.3774
13.004
12.6322
12.2619
11.8928
11.5246
11.1567
10.7885
10.4195
10.0497
9.67937
9.30888
8.939
8.57056
8.20434
7.84094
7.48072
7.12373
6.76977
6.41842
6.06918
5.72155
5.37513
5.02966
4.68507
4.34154
3.99958
3.65994
3.32383
2.9927
2.66821
2.35231
2.04678
1.75184
1.46634
1.17803
0.898014
0.927303
1.20933
1.48865
1.7768
2.07526
2.38333
2.69921
3.02142
3.34863
3.67953
4.01295
4.34844
4.68604
5.0261
5.36899
5.71499
6.06425
6.41676
6.77236
7.13081
7.49183
7.85509
8.22029
8.58714
8.95538
9.32475
9.69504
10.066
10.4375
10.8093
11.1812
11.5532
11.9253
12.2975
12.6699
13.0426
13.416
13.7902
14.1655
14.5423
14.9205
15.3004
15.682
16.0651
16.4497
16.8354
17.2221
17.6093
17.9968
18.3845
18.7721
19.1596
19.5471
19.9349
20.3233
20.7126
21.1033
21.4959
21.8907
22.2877
22.6872
23.0888
23.4924
23.8976
24.304
24.7115
25.1198
25.5291
25.9395
26.3514
26.7652
27.1811
27.5994
28.0199
28.4424
28.8665
29.2919
29.7179
30.1444
30.5712
30.9981
31.4255
31.8534
32.2822
32.7119
33.1428
33.5747
34.0077
34.4416
34.8762
35.3115
35.7472
36.1834
36.6201
37.0572
37.4949
37.9333
38.3724
38.8124
39.2534
39.6953
40.1384
40.5828
41.0284
41.4754
41.924
42.374
42.8257
43.2789
43.7337
44.19
44.648
45.1076
45.569
46.0322
46.4972
46.964
47.4326
47.9029
48.3747
48.8482
49.3233
49.8001
50.2789
50.7599
51.243
51.7284
52.2157
52.705
53.1959
53.6885
54.1827
54.6788
55.1769
55.6772
56.1797
56.6842
57.1907
57.6989
58.2089
58.7208
59.2346
59.7503
60.2678
60.7868
61.3071
61.8288
62.352
62.8768
63.4035
63.9321
64.4624
64.9943
65.528
66.0633
66.6006
67.14
67.6814
68.2247
68.77
69.317
69.8659
70.4167
70.9695
71.5241
72.0803
72.6378
73.1963
73.7556
74.3155
74.8755
75.4345
75.9904
76.5392
77.0774
77.6066
78.1339
78.6673
79.2078
79.7497
80.3221
80.8775
81.4914
82.0379
82.7156
83.02
84.107
83.2943
85.971
83.8761
88.8924
89.658
89.2394
89.3466
91.9712
89.338
90.6157
91.7798
92.4619
93.0711
93.5816
93.7673
94.1223
94.4839
95.0861
95.6682
96.4789
97.22
98.1533
98.9328
99.8105
100.423
101.276
101.827
102.726
103.293
103.979
104.377
105.035
105.359
105.984
106.324
106.895
107.283
107.829
108.206
108.671
108.996
109.341
109.552
109.726
109.71
109.609
109.249
108.471
107.549
105.26
102.458
101.483
96.8203
125.203
115.519
23.5277
-275.577
-2351.36
-4011.5
-4591.41
-4756.24
-4904.13
-5016.18
-5076.78
-5101.17
-5102.35
-5084.41
-5049.52
-5000.3
-4938.69
-4864.42
-4778.63
-4681.65
-4573.94
-4456.23
-4328.96
-4192.4
-4046.82
-3892.38
-3729.43
-3558.01
-3377.41
-3187.55
-2988.55
-2778.42
-2556.56
-2322.69
-2076.59
-1818.66
-1550.59
-1275.17
-994.693
-705.068
-726.466
-752.722
-777.153
-801.244
-827.498
-857.438
-890.38
-925.261
-958.355
-981.218
-982.665
-977.868
-977.572
-984.039
-998.487
-1015.11
-1027.09
-1036.14
-1043.62
-1042.97
-1025.72
-996.176
-968.824
-950.461
-944.614
-950.764
-964.494
-981.688
-999.837
-1021.24
-1049.87
-1082.42
-1121.49
-1177.11
-1375.67
-1570.32
-1771.5
-1979.14
-2191.19
-2406.26
-2622.98
-2840.18
-3056.47
-3270.4
-3480.79
-3686.9
-3887.49
-4081.72
-4269
-4448.39
-4619.11
-4780.3
-4930.91
-5069.72
-5195.4
-5306.61
-5401.57
-5478.05
-5534.17
-5566.71
-5572.47
-5547.49
-5487.77
-5392.03
-5259.28
-5014.48
-4190.44
-1619.44
-113.34
78.407
100.32
105.94
106.854
104.339
105.995
106.982
108.678
109.966
110.746
111.292
111.524
111.541
111.439
111.207
110.885
110.483
110.067
109.57
109.097
108.542
108.042
107.461
106.963
106.357
105.844
105.198
104.641
103.935
103.285
102.492
101.802
100.999
100.263
99.4248
98.6385
97.7889
97.0354
96.2731
95.6388
95.0213
94.5335
94.0555
93.6275
93.0527
92.425
91.6326
90.8099
90.0955
90.0837
89.4357
89.1692
88.5259
87.6974
85.9107
85.5017
84.4441
84.063
83.3616
82.8355
82.2052
81.6326
81.0308
80.4612
79.8867
79.3318
78.7814
78.2379
77.6976
77.1567
76.6118
76.0619
75.5081
74.9517
74.3941
73.8366
73.2802
72.7248
72.1698
71.6149
71.0607
70.5083
69.9586
69.4116
68.8665
68.3229
67.7809
67.2409
66.7032
66.1673
65.6328
65.0999
64.5688
64.04
63.5132
62.9874
62.4619
61.9368
61.4131
60.8917
60.3729
59.8561
59.3402
58.8246
58.3094
57.7954
57.2833
56.7735
56.2657
55.7594
55.2543
54.7507
54.2489
53.7491
53.2508
52.7536
52.2572
51.7616
51.2676
50.7758
50.2866
49.7998
49.315
48.8315
48.3491
47.8679
47.3882
46.9103
46.4341
45.9594
45.4863
45.0146
44.5449
44.0773
43.6121
43.149
42.6875
42.2269
41.767
41.3078
40.8498
40.3935
39.9396
39.4881
39.0387
38.5908
38.1437
37.6971
37.2511
36.8062
36.3629
35.9216
35.4822
35.0443
34.6076
34.1715
33.7359
33.3009
32.867
32.4346
32.0038
31.5748
31.1474
30.7212
30.2961
29.872
29.449
29.0274
28.6074
28.1891
27.7724
27.3572
26.9434
26.5307
26.1194
25.7096
25.3015
24.8954
24.4915
24.0897
23.6898
23.2916
22.8948
22.4993
22.1052
21.7126
21.3218
20.9332
20.5467
20.1622
19.7796
19.3983
19.0181
18.6386
18.2597
17.8815
17.5039
17.127
16.751
16.3756
16.0006
15.6257
15.2507
14.8753
14.4996
14.1239
13.7485
13.374
13.0008
12.6291
12.259
11.8902
11.5221
11.1541
10.7858
10.4167
10.0468
9.6762
9.30557
8.93563
8.56722
8.20112
7.8379
7.47788
7.12109
6.76728
6.416
6.06675
5.71902
5.37245
5.02677
4.68186
4.33794
3.99548
3.65517
3.31822
2.98622
2.66099
2.34397
2.03825
1.74619
1.49741
1.18366
0.90953
0.914059
0.990309
1.07064
1.0882
1.1023
1.11453
1.12452
1.13409
1.14471
1.15672
1.1687
1.17911
1.18748
1.19404
1.19931
1.20375
1.20766
1.21122
1.21452
1.21759
1.22044
1.22309
1.22557
1.22787
1.23002
1.23202
1.23388
1.23562
1.23722
1.23868
1.24001
1.2412
1.24226
1.24319
1.24397
1.24463
1.24515
1.24556
1.24585
1.24603
1.24613
1.24615
1.2461
1.24599
1.24584
1.24565
1.24542
1.24516
1.24486
1.24453
1.24417
1.24377
1.24333
1.24284
1.2423
1.24171
1.24107
1.24037
1.23962
1.2388
1.23792
1.23697
1.23596
1.23489
1.23374
1.23254
1.23128
1.22997
1.22862
1.22724
1.22585
1.22446
1.22311
1.2218
1.22056
1.21941
1.21837
1.21744
1.21664
1.21598
1.21545
1.21504
1.21473
1.2145
1.21428
1.21404
1.21369
1.21317
1.21239
1.21131
1.20986
1.20803
1.20584
1.20335
1.20062
1.1977
1.19461
1.1913
1.18758
1.18306
1.17715
1.1691
1.15865
1.14655
1.13471
1.12514
1.11768
1.10842
1.08971
1.06917
1.03847
0.884724
0.92879
1.23503
1.48094
1.76721
2.06655
2.37625
2.69307
3.01605
3.34405
3.67565
4.00937
4.34486
4.68236
5.02236
5.36528
5.71139
6.06081
6.41349
6.76928
7.1279
7.48906
7.85245
8.21775
8.58467
8.95296
9.32236
9.69265
10.0636
10.435
10.8067
11.1786
11.5505
11.9225
12.2946
12.6668
13.0395
13.4128
13.7869
14.1622
14.5389
14.9172
15.2971
15.6786
16.0617
16.4463
16.832
17.2185
17.6057
17.9931
18.3807
18.7682
19.1556
19.5431
19.9308
20.3192
20.7085
21.0993
21.492
21.8868
22.284
22.6835
23.0852
23.4887
23.8939
24.3002
24.7076
25.1158
25.5249
25.9353
26.3472
26.761
27.177
27.5953
28.0159
28.4384
28.8625
29.2877
29.7135
30.1398
30.5664
30.9932
31.4205
31.8484
32.2772
32.7071
33.1381
33.5701
34.0031
34.437
34.8715
35.3066
35.7423
36.1783
36.6149
37.052
37.4897
37.928
38.3672
38.8072
39.2482
39.6901
40.1332
40.5774
41.0229
41.4699
41.9184
42.3684
42.82
43.2733
43.7281
44.1845
44.6424
45.1021
45.5634
46.0266
46.4916
46.9584
47.4269
47.8971
48.3689
48.8423
49.3173
49.7941
50.2729
50.7539
51.237
51.7223
52.2096
52.6986
53.1894
53.6818
54.1759
54.6719
55.17
55.6703
56.1727
56.6772
57.1834
57.6915
58.2014
58.7131
59.2269
59.7426
60.26
60.7788
61.299
61.8206
62.3436
62.8683
63.3948
63.9232
64.4533
64.985
65.5184
66.0536
66.5907
67.1299
67.671
68.2141
68.759
69.3056
69.854
70.4042
70.9564
71.5103
72.0656
72.6221
73.1794
73.7372
74.2955
74.8538
75.4112
75.9661
76.5166
77.0612
77.6011
78.1404
78.6833
79.2328
79.7859
80.3578
80.9252
81.5248
82.0947
82.7208
83.2421
83.9369
84.3137
85.363
85.7647
87.5395
88.3187
88.9218
89.2092
89.8871
89.878
90.5728
91.3697
92.1447
92.7578
93.3156
93.7244
94.1824
94.6442
95.237
95.8439
96.5807
97.3032
98.124
98.871
99.6738
100.36
101.123
101.761
102.509
103.098
103.754
104.247
104.839
105.283
105.831
106.26
106.778
107.205
107.696
108.095
108.516
108.848
109.16
109.371
109.522
109.53
109.42
109.118
108.538
107.787
106.521
105.074
104.891
105.347
112.232
109.359
97.6751
57.2765
-411.886
-2854.8
-4495.33
-4853.66
-4937.57
-5013.54
-5063.75
-5087.08
-5089.18
-5073.32
-5041.21
-4994.34
-4934.07
-4860.73
-4775.22
-4678.08
-4569.88
-4451.2
-4322.6
-4184.63
-4037.52
-3881.38
-3716.56
-3543.29
-3361.59
-3171.41
-2972.55
-2763.97
-2545.25
-2315.93
-2075.73
-1824.81
-1563.95
-1294.18
-1016.37
-1038.37
-1059.18
-1079.51
-1100.93
-1124.1
-1148.89
-1174.65
-1199.33
-1216.29
-1216
-1208.74
-1205.19
-1206.86
-1213.63
-1223.3
-1232.86
-1241.58
-1250.45
-1255.57
-1247.08
-1229.51
-1211.42
-1199.57
-1196.7
-1202.77
-1215.13
-1230.91
-1248.65
-1268.19
-1291.74
-1317.11
-1344.73
1.24808
-1558.77
-1772.31
-1988.14
-2205.15
-2423.32
-2641.86
-2860.02
-3076.75
-3291.04
-3501.81
-3708.2
-3909.08
-4103.67
-4291.31
-4471.07
-4642.22
-4804
-4955.33
-5094.98
-5221.57
-5333.65
-5429.48
-5507.02
-5564.46
-5599.42
-5609.51
-5593.69
-5555.93
-5506.53
-5399.07
-4733.03
-2139.42
-184.399
89.934
101.219
102.763
104.853
106.593
106.361
107.678
108.312
109.399
110.266
110.831
111.224
111.394
111.392
111.271
111.037
110.726
110.34
109.925
109.445
108.967
108.43
107.917
107.349
106.821
106.225
105.675
105.041
104.451
103.764
103.111
102.367
101.67
100.901
100.168
99.3755
98.6177
97.8275
97.099
96.3725
95.7295
95.1037
94.5577
94.0154
93.5002
92.9095
92.2913
91.5875
90.9072
90.2822
89.9143
89.2676
88.8325
88.0995
87.3644
86.1871
85.5701
84.6827
84.1412
83.4527
82.8799
82.2539
81.6687
81.0698
80.4926
79.9155
79.3528
78.795
78.2428
77.6935
77.1448
76.5949
76.0426
75.488
74.9317
74.3747
73.8182
73.2626
72.7076
72.1528
71.5983
71.045
70.4937
69.9449
69.3982
68.8533
68.3098
67.7682
67.2288
66.6914
66.1556
65.6211
65.0883
64.5575
64.029
63.5023
62.9764
62.4508
61.9258
61.4025
60.8816
60.3632
59.8463
59.3302
58.8144
58.2993
57.7856
57.274
56.7645
56.2567
55.7502
55.2452
54.7418
54.2403
53.7407
53.2426
52.7454
52.2488
51.7533
51.2596
50.7682
50.2794
49.7928
49.308
48.8244
48.3419
47.8607
47.3811
46.9033
46.4272
45.9526
45.4794
45.0077
44.538
44.0706
43.6056
43.1427
42.6813
42.2207
41.7606
41.3012
40.8431
40.3869
39.9332
39.4819
39.0326
38.5847
38.1375
37.6909
37.2449
36.8002
36.3572
35.9161
35.4769
35.0391
34.6023
34.166
33.7302
33.2952
32.8614
32.4292
31.9987
31.5699
31.1426
30.7164
30.2912
29.867
29.444
29.0224
28.6024
28.1842
27.7676
27.3524
26.9386
26.526
26.1147
25.7049
25.2969
24.891
24.4873
24.0856
23.6857
23.2875
22.8906
22.495
22.1008
21.7082
21.3176
20.929
20.5426
20.1582
19.7755
19.3941
19.0137
18.6339
18.2548
17.8763
17.4987
17.1218
16.7458
16.3705
15.9955
15.6207
15.2456
14.8702
14.4944
14.1187
13.7434
13.369
12.996
12.6245
12.2546
11.8858
11.5177
11.1497
10.7812
10.412
10.0418
9.67111
9.30041
8.93049
8.5622
8.19628
7.83329
7.4735
7.11691
6.76322
6.41199
6.06272
5.71494
5.3683
5.02244
4.67731
4.33327
3.99055
3.64954
3.31122
2.97728
2.6488
2.32544
2.00944
1.6823
1.51552
1.14189
1.41482
1.73604
2.04593
2.36273
2.68344
3.00886
3.33894
3.67209
4.00611
4.34109
4.67786
5.01729
5.35991
5.70597
6.05552
6.40847
6.76457
7.12353
7.48498
7.84859
8.21403
8.58103
8.94932
9.31867
9.68886
10.0597
10.431
10.8025
11.1742
11.546
11.9178
12.2897
12.6619
13.0345
13.4078
13.7819
14.1573
14.534
14.9123
15.2922
15.6737
16.0568
16.4413
16.8268
17.2133
17.6003
17.9877
18.3751
18.7626
19.15
19.5374
19.9252
20.3136
20.7031
21.094
21.4868
21.8818
22.279
22.6786
23.0803
23.4838
23.8889
24.2951
24.7023
25.1104
25.5195
25.9299
26.3418
26.7557
27.1718
27.5901
28.0107
28.4331
28.857
29.2819
29.7076
30.1336
30.5599
30.9866
31.4139
31.8419
32.2708
32.7008
33.1318
33.5639
33.997
34.4308
34.8652
35.3002
35.7356
36.1715
36.608
37.045
37.4827
37.9211
38.3604
38.8004
39.2414
39.6833
40.1263
40.5704
41.0159
41.4627
41.9111
42.3612
42.8128
43.2661
43.7209
44.1774
44.6353
45.095
45.5564
46.0195
46.4845
46.9512
47.4197
47.8898
48.3615
48.8348
49.3098
49.7866
50.2654
50.7464
51.2295
51.7147
52.2018
52.6906
53.1812
53.6734
54.1674
54.6634
55.1615
55.6618
56.1642
56.6684
57.1745
57.6823
58.192
58.7037
59.2174
59.733
60.2503
60.7691
61.2891
61.8104
62.3333
62.8579
63.3843
63.9125
64.4423
64.9738
65.507
66.0421
66.5791
67.1181
67.659
68.2018
68.7463
69.2925
69.8404
70.3903
70.9419
71.4952
72.0499
72.6055
73.1619
73.7189
74.2763
74.8339
75.3911
75.9468
76.5
77.05
77.5978
78.1459
78.6972
79.2541
79.8154
80.3901
80.9648
81.5612
82.1435
82.7653
83.3327
84.0144
84.5499
85.4291
86.0369
87.2003
87.9085
88.6131
89.0532
89.7057
90.0593
90.6687
91.3297
92.0171
92.6192
93.1925
93.6886
94.2105
94.732
95.3331
95.9494
96.6496
97.3479
98.1079
98.8287
99.5847
100.274
101.002
101.65
102.349
102.947
103.583
104.115
104.694
105.182
105.719
106.182
106.688
107.133
107.605
108.013
108.421
108.759
109.067
109.292
109.455
109.502
109.447
109.246
108.86
108.382
107.656
106.925
107.041
106.87
108.982
106.595
104.863
100.752
49.3406
-651.077
-3503.35
-4714.73
-4976.74
-5046.08
-5079.86
-5095.31
-5095.19
-5079.53
-5048.6
-5002.98
-4943.43
-4870.36
-4784.6
-4686.78
-4577.49
-4457.32
-4326.98
-4187.08
-4037.87
-3879.61
-3712.76
-3537.82
-3355.07
-3164.45
-2965.8
-2758.51
-2542.15
-2316.22
-2080.3
-1834.21
-1578.39
-1312.58
1.30153
1.34432
1.37812
1.40697
1.42364
1.43566
1.4477
1.46218
1.47962
1.49711
1.5118
1.52317
1.53189
1.53891
1.54493
1.55039
1.55548
1.56026
1.56476
1.56898
1.57293
1.57664
1.58011
1.58338
1.58646
1.58935
1.59206
1.5946
1.59695
1.59912
1.6011
1.6029
1.60451
1.60594
1.60719
1.60827
1.60918
1.60993
1.61054
1.61102
1.61139
1.61166
1.61184
1.61194
1.61197
1.61194
1.61184
1.61169
1.61147
1.61119
1.61084
1.61041
1.6099
1.60931
1.60863
1.60785
1.60699
1.60602
1.60495
1.60377
1.60249
1.6011
1.59961
1.59801
1.5963
1.5945
1.59261
1.59064
1.58862
1.58656
1.58449
1.58243
1.58041
1.57845
1.57658
1.57483
1.5732
1.57173
1.57041
1.56924
1.56823
1.56734
1.56654
1.56576
1.56495
1.564
1.56281
1.56128
1.55931
1.55683
1.55381
1.55028
1.54632
1.54207
1.53763
1.53307
1.52837
1.52334
1.5175
1.50981
1.49905
1.48462
1.46731
1.45037
1.43727
1.42888
1.42616
1.43349
1.43949
-1330.99
-1349.37
-1367.47
-1385.84
-1404.06
-1421.51
-1436.81
-1446.7
-1447.3
-1443.4
-1440.64
-1440.84
-1444.32
-1450.01
-1456.2
-1462.11
-1467.53
-1469.92
-1465.34
-1455.84
-1446.6
-1441.65
-1443.03
-1450.63
-1462.63
-1477.05
-1492.6
-1508.88
-1526.09
-1543.32
-1593.28
-1608.9
-1624.09
-1638.81
-1652.18
-1663.7
-1672.55
-1677.56
-1677.74
-1675.19
-1672.66
-1671.71
-1672.99
-1676.06
-1679.87
-1683.72
-1687
-1688.38
-1686.63
-1683.02
-1680.49
-1681.44
-1686.92
-1696.43
-1708.39
-1721.27
-1734.1
-1746.48
-1757.62