/*--------------------------------*- C++ -*----------------------------------*\
| =========                 |                                                 |
| \\      /  F ield         | OpenFOAM: The Open Source CFD Toolbox           |
|  \\    /   O peration     | Version:  2.2.1                                 |
|   \\  /    A nd           | Web:      www.OpenFOAM.org                      |
|    \\/     M anipulation  |                                                 |
\*---------------------------------------------------------------------------*/
FoamFile
{
    version     2.0;
    format      ascii;
    class       surfaceScalarField;
    location    "2.5e-05";
    object      phi;
}
// * * * * * * * * * * * * * * * * * * * * * * * * * * * * * * * * * * * * * //

dimensions      [0 3 -1 0 0 0 0];

internalField   nonuniform List<scalar> 
44563
(
-5.38434e-14
2.30315e-15
-4.72937e-14
-6.54962e-15
-4.10986e-14
-6.19519e-15
-3.53704e-14
-5.72819e-15
-3.05327e-14
-4.83771e-15
-2.65017e-14
-4.03097e-15
-2.31988e-14
-3.3029e-15
-2.03968e-14
-2.80197e-15
-1.80423e-14
-2.35447e-15
-1.61534e-14
-1.88893e-15
-1.46448e-14
-1.50862e-15
-1.34139e-14
-1.23093e-15
-1.24537e-14
-9.60203e-16
-1.20031e-14
-4.50547e-16
-1.16297e-14
-3.73412e-16
-1.15068e-14
-1.22848e-16
-1.17386e-14
2.318e-16
-1.20849e-14
3.46298e-16
-1.26113e-14
5.26339e-16
-1.33403e-14
7.29024e-16
-1.425e-14
9.09713e-16
-1.53115e-14
1.06147e-15
-1.6526e-14
1.21447e-15
-1.80039e-14
1.47797e-15
-1.96822e-14
1.67826e-15
-2.15095e-14
1.82735e-15
-2.39657e-14
2.45619e-15
-2.66899e-14
2.72418e-15
-3.00687e-14
3.37875e-15
-3.44586e-14
4.38995e-15
-4.05206e-14
6.06195e-15
-4.84993e-14
7.97876e-15
-5.95185e-14
1.10192e-14
-7.54701e-14
1.59516e-14
-9.91467e-14
2.36766e-14
-1.319e-13
3.27531e-14
-1.74032e-13
4.21319e-14
-2.11158e-13
3.71264e-14
-2.62539e-13
5.13813e-14
-2.19153e-13
-4.33862e-14
-1.79529e-13
-3.96246e-14
-1.92616e-13
1.30873e-14
-9.60348e-14
-9.65812e-14
-1.33199e-13
3.71639e-14
-7.70439e-14
-5.61549e-14
-6.30804e-14
-1.39634e-14
-5.40639e-14
-9.0165e-15
-3.87564e-14
-1.53075e-14
-3.14537e-14
-7.30276e-15
-2.44776e-14
-6.97605e-15
-1.77993e-14
-6.67832e-15
-1.29733e-14
-4.82601e-15
-7.29683e-15
-5.67644e-15
-3.96131e-15
-3.33551e-15
1.40289e-15
-5.36419e-15
2.47753e-15
-1.07465e-15
7.66336e-15
-5.18582e-15
6.90469e-15
7.58673e-16
1.18015e-14
-4.89684e-15
9.49456e-15
2.30697e-15
1.38421e-14
-4.34751e-15
9.45205e-15
4.39002e-15
1.29426e-14
-3.49055e-15
6.54469e-15
6.39791e-15
9.59906e-15
-3.05436e-15
1.90334e-15
7.69572e-15
4.55313e-15
-2.64979e-15
-3.42382e-15
7.97695e-15
-2.03726e-15
-1.38656e-15
-9.25821e-15
7.22094e-15
-7.8342e-15
-1.42401e-15
-1.2437e-14
4.60276e-15
-9.21855e-15
-3.21841e-15
-1.15443e-14
2.32574e-15
-6.7755e-15
-4.76878e-15
-6.88079e-15
1.05285e-16
-6.57456e-16
-6.22333e-15
1.94249e-16
-8.51704e-16
6.00886e-15
-5.81461e-15
6.26567e-15
-2.56809e-16
9.93403e-15
-3.66836e-15
7.84539e-15
2.08864e-15
9.94907e-15
-2.10368e-15
5.66118e-15
4.28788e-15
8.21131e-15
-2.55013e-15
2.6168e-15
5.59451e-15
-4.3232e-15
6.94e-15
-1.78058e-14
1.34826e-14
-2.34251e-15
-1.54633e-14
-2.29356e-14
2.05931e-14
-2.9238e-16
-2.26432e-14
-1.64631e-14
1.61707e-14
-1.80843e-15
-1.46547e-14
-1.80014e-14
1.6193e-14
-5.70503e-15
-1.22964e-14
-1.56213e-14
9.91628e-15
-8.35696e-15
-7.26435e-15
-1.17714e-14
3.4144e-15
-7.73505e-15
-4.0363e-15
-7.85555e-15
1.20493e-16
-5.14036e-15
-2.71518e-15
-4.2655e-15
-8.74859e-16
-2.31845e-15
-1.94705e-15
-1.199e-15
-1.11945e-15
-2.11183e-17
-1.17789e-15
8.90641e-16
-9.11758e-16
1.52126e-15
-6.30621e-16
1.8852e-15
-3.63937e-16
2.07819e-15
-1.92993e-16
2.19633e-15
-1.18141e-16
2.28287e-15
-8.65404e-17
2.35131e-15
-6.84392e-17
2.4077e-15
-5.63947e-17
2.45535e-15
-4.76498e-17
2.49627e-15
-4.09174e-17
2.53199e-15
-3.57184e-17
2.56375e-15
-3.17579e-17
2.59235e-15
-2.86022e-17
2.61814e-15
-2.57884e-17
2.64128e-15
-2.31427e-17
2.66212e-15
-2.08367e-17
2.68121e-15
-1.90982e-17
2.69911e-15
-1.78941e-17
2.71604e-15
-1.69329e-17
2.73198e-15
-1.5943e-17
2.74687e-15
-1.48917e-17
2.76081e-15
-1.39359e-17
2.774e-15
-1.31981e-17
2.78664e-15
-1.26352e-17
2.79875e-15
-1.21107e-17
2.81031e-15
-1.1553e-17
2.82133e-15
-1.10275e-17
2.83197e-15
-1.06365e-17
2.84236e-15
-1.03848e-17
2.85249e-15
-1.01366e-17
2.86223e-15
-9.74027e-18
2.87141e-15
-9.17529e-18
2.88e-15
-8.59582e-18
2.88821e-15
-8.20539e-18
2.8963e-15
-8.08543e-18
2.90442e-15
-8.1232e-18
2.91252e-15
-8.09497e-18
2.92036e-15
-7.83994e-18
2.92774e-15
-7.37888e-18
2.93462e-15
-6.88423e-18
2.94116e-15
-6.53775e-18
2.94755e-15
-6.39305e-18
2.95391e-15
-6.35977e-18
2.9602e-15
-6.29145e-18
2.96631e-15
-6.11015e-18
2.97217e-15
-5.85618e-18
2.97781e-15
-5.63736e-18
2.98332e-15
-5.52035e-18
2.98879e-15
-5.47126e-18
2.99418e-15
-5.39212e-18
2.99938e-15
-5.19907e-18
3.00428e-15
-4.89542e-18
3.00885e-15
-4.5688e-18
3.01318e-15
-4.33319e-18
3.01743e-15
-4.24266e-18
3.02169e-15
-4.26445e-18
3.026e-15
-4.30723e-18
3.03029e-15
-4.28484e-18
3.03446e-15
-4.16679e-18
3.03844e-15
-3.9836e-18
3.04224e-15
-3.79705e-18
3.04589e-15
-3.64959e-18
3.04943e-15
-3.54573e-18
3.05289e-15
-3.45392e-18
3.05623e-15
-3.34491e-18
3.05944e-15
-3.21067e-18
3.06252e-15
-3.08021e-18
3.06551e-15
-2.99349e-18
3.06849e-15
-2.97538e-18
3.0715e-15
-3.0116e-18
3.07455e-15
-3.04818e-18
3.07758e-15
-3.02442e-18
3.08048e-15
-2.90211e-18
3.08318e-15
-2.69602e-18
3.08564e-15
-2.46722e-18
3.08794e-15
-2.29589e-18
3.09017e-15
-2.23679e-18
3.09246e-15
-2.29129e-18
3.09487e-15
-2.40284e-18
3.09735e-15
-2.48797e-18
3.09983e-15
-2.47614e-18
3.10217e-15
-2.34672e-18
3.10431e-15
-2.13761e-18
3.10624e-15
-1.92435e-18
3.10802e-15
-1.78261e-18
3.10977e-15
-1.74972e-18
3.11158e-15
-1.81118e-18
3.11349e-15
-1.90937e-18
3.11546e-15
-1.97142e-18
3.11741e-15
-1.94993e-18
3.11925e-15
-1.83835e-18
3.12092e-15
-1.66893e-18
3.12241e-15
-1.4957e-18
3.12378e-15
-1.36854e-18
3.12509e-15
-1.30926e-18
3.12639e-15
-1.30413e-18
3.12772e-15
-1.32e-18
3.12903e-15
-1.31798e-18
3.13031e-15
-1.27251e-18
3.13149e-15
-1.18231e-18
3.13256e-15
-1.06859e-18
3.13352e-15
-9.60892e-19
3.1344e-15
-8.81454e-19
3.13524e-15
-8.34961e-19
3.13605e-15
-8.0807e-19
3.13682e-15
-7.75125e-19
3.13753e-15
-7.09745e-19
3.13813e-15
-6.00346e-19
3.13858e-15
-4.54459e-19
3.13888e-15
-2.94901e-19
3.13903e-15
-1.50625e-19
3.13907e-15
-4.40617e-20
3.13906e-15
1.62833e-20
3.13901e-15
4.21757e-20
3.13895e-15
6.06522e-20
3.13885e-15
1.03038e-19
3.13866e-15
1.92546e-19
3.13832e-15
3.35372e-19
3.13781e-15
5.18624e-19
3.13709e-15
7.13627e-19
3.1362e-15
8.91858e-19
3.13518e-15
1.02211e-18
3.13408e-15
1.09431e-18
3.13296e-15
1.11877e-18
3.13185e-15
1.12065e-18
3.13072e-15
1.13144e-18
3.12954e-15
1.17852e-18
3.12826e-15
1.274e-18
3.12685e-15
1.41137e-18
3.12528e-15
1.57096e-18
3.12355e-15
1.72642e-18
3.1217e-15
1.85596e-18
3.11975e-15
1.95159e-18
3.11773e-15
2.02077e-18
3.11564e-15
2.08619e-18
3.11347e-15
2.17744e-18
3.11115e-15
2.31991e-18
3.10862e-15
2.52686e-18
3.10582e-15
2.79456e-18
3.10272e-15
3.10062e-18
3.09931e-15
3.40691e-18
3.09564e-15
3.6754e-18
3.09176e-15
3.87619e-18
3.08776e-15
3.99697e-18
3.08371e-15
4.04863e-18
3.07965e-15
4.06477e-18
3.07556e-15
4.09249e-18
3.07137e-15
4.18283e-18
3.067e-15
4.37456e-18
3.06232e-15
4.68396e-18
3.05721e-15
5.10136e-18
3.05162e-15
5.59307e-18
3.04551e-15
6.10721e-18
3.03893e-15
6.58479e-18
3.03195e-15
6.97349e-18
3.02472e-15
7.23631e-18
3.01737e-15
7.3501e-18
3.01007e-15
7.29848e-18
3.00301e-15
7.05939e-18
2.99642e-15
6.5939e-18
2.99056e-15
5.85145e-18
2.98575e-15
4.81085e-18
2.98219e-15
3.56367e-18
2.97976e-15
2.43166e-18
2.97771e-15
2.05281e-18
2.97438e-15
3.3321e-18
2.96719e-15
7.18664e-18
2.95306e-15
1.41334e-17
2.92912e-15
2.39333e-17
2.89376e-15
3.53605e-17
2.84588e-15
4.78771e-17
2.78115e-15
6.47352e-17
2.70077e-15
8.03774e-17
2.61034e-15
9.04311e-17
2.5298e-15
8.0548e-17
2.46855e-15
6.12431e-17
2.4139e-15
5.46561e-17
2.33995e-15
7.39429e-17
2.21976e-15
1.20197e-16
1.74023e-16
-2.22348e-15
1.64174e-16
-2.33879e-15
1.15313e-16
-2.41796e-15
7.91666e-17
-2.48533e-15
6.73778e-17
-2.56045e-15
7.51157e-17
-2.64194e-15
8.14893e-17
-2.72069e-15
7.87524e-17
-2.79213e-15
7.14354e-17
-2.85273e-15
6.06004e-17
-2.90033e-15
4.76006e-17
-2.93414e-15
3.38091e-17
-2.95537e-15
2.12336e-17
-2.96679e-15
1.14239e-17
-2.97234e-15
5.54623e-18
-2.97583e-15
3.49462e-18
-2.97997e-15
4.13278e-18
-2.98594e-15
5.9753e-18
-2.99374e-15
7.79908e-18
-3.00263e-15
8.89053e-18
-3.01165e-15
9.0257e-18
-3.01998e-15
8.32559e-18
-3.02706e-15
7.08572e-18
-3.03271e-15
5.64817e-18
-3.03702e-15
4.3093e-18
-3.04029e-15
3.26923e-18
-3.04292e-15
2.62658e-18
-3.0453e-15
2.38786e-18
-3.0478e-15
2.49411e-18
-3.05065e-15
2.85073e-18
-3.054e-15
3.35069e-18
-3.05789e-15
3.89457e-18
-3.0623e-15
4.40658e-18
-3.06713e-15
4.83266e-18
-3.07228e-15
5.14584e-18
-3.07762e-15
5.33895e-18
-3.08304e-15
5.41814e-18
-3.08844e-15
5.39983e-18
-3.09374e-15
5.3026e-18
-3.09889e-15
5.1456e-18
-3.10383e-15
4.94434e-18
-3.10854e-15
4.7105e-18
-3.11299e-15
4.44978e-18
-3.11716e-15
4.16507e-18
-3.12102e-15
3.85916e-18
-3.12455e-15
3.53328e-18
-3.12774e-15
3.18923e-18
-3.13057e-15
2.83061e-18
-3.13304e-15
2.46522e-18
-3.13514e-15
2.10173e-18
-3.13689e-15
1.75041e-18
-3.13831e-15
1.42303e-18
-3.13944e-15
1.13269e-18
-3.14033e-15
8.89226e-19
-3.14103e-15
6.99906e-19
-3.1416e-15
5.69729e-19
-3.1421e-15
4.96782e-19
-3.14258e-15
4.74364e-19
-3.14306e-15
4.89534e-19
-3.14359e-15
5.21374e-19
-3.14413e-15
5.46902e-19
-3.14468e-15
5.46808e-19
-3.14518e-15
5.03835e-19
-3.14559e-15
4.07253e-19
-3.14584e-15
2.55528e-19
-3.1459e-15
5.96012e-20
-3.14574e-15
-1.59444e-19
-3.14537e-15
-3.75388e-19
-3.14481e-15
-5.60214e-19
-3.14412e-15
-6.92538e-19
-3.14336e-15
-7.60028e-19
-3.1426e-15
-7.64276e-19
-3.14187e-15
-7.2322e-19
-3.14121e-15
-6.65077e-19
-3.14058e-15
-6.21563e-19
-3.13996e-15
-6.1967e-19
-3.13928e-15
-6.80798e-19
-3.13847e-15
-8.0939e-19
-3.13748e-15
-9.93972e-19
-3.13627e-15
-1.20954e-18
-3.13485e-15
-1.42532e-18
-3.13323e-15
-1.61247e-18
-3.13149e-15
-1.74889e-18
-3.12966e-15
-1.82536e-18
-3.12782e-15
-1.84695e-18
-3.12599e-15
-1.83025e-18
-3.12419e-15
-1.79688e-18
-3.12242e-15
-1.76833e-18
-3.12066e-15
-1.76255e-18
-3.11887e-15
-1.78885e-18
-3.11702e-15
-1.8483e-18
-3.11509e-15
-1.93544e-18
-3.11304e-15
-2.04067e-18
-3.11089e-15
-2.1521e-18
-3.10863e-15
-2.25907e-18
-3.10628e-15
-2.35491e-18
-3.10384e-15
-2.43348e-18
-3.10135e-15
-2.49294e-18
-3.09881e-15
-2.53493e-18
-3.09625e-15
-2.56298e-18
-3.09367e-15
-2.58284e-18
-3.09107e-15
-2.60102e-18
-3.08845e-15
-2.62373e-18
-3.08579e-15
-2.65523e-18
-3.0831e-15
-2.69643e-18
-3.08035e-15
-2.74565e-18
-3.07755e-15
-2.79999e-18
-3.07469e-15
-2.85741e-18
-3.07177e-15
-2.91751e-18
-3.06879e-15
-2.98021e-18
-3.06574e-15
-3.04777e-18
-3.06262e-15
-3.12251e-18
-3.05942e-15
-3.203e-18
-3.05613e-15
-3.28615e-18
-3.05276e-15
-3.36958e-18
-3.04931e-15
-3.45218e-18
-3.04577e-15
-3.53522e-18
-3.04215e-15
-3.62274e-18
-3.03843e-15
-3.72137e-18
-3.0346e-15
-3.83482e-18
-3.03064e-15
-3.96375e-18
-3.02653e-15
-4.10257e-18
-3.02229e-15
-4.24121e-18
-3.01792e-15
-4.36828e-18
-3.01344e-15
-4.47644e-18
-3.00888e-15
-4.56571e-18
-3.00423e-15
-4.64427e-18
-2.9995e-15
-4.72744e-18
-2.99467e-15
-4.83359e-18
-2.98969e-15
-4.97524e-18
-2.98453e-15
-5.15556e-18
-2.97917e-15
-5.36439e-18
-2.97359e-15
-5.58158e-18
-2.9678e-15
-5.78354e-18
-2.96185e-15
-5.95579e-18
-2.95575e-15
-6.09611e-18
-2.94953e-15
-6.21918e-18
-2.94318e-15
-6.35012e-18
-2.93667e-15
-6.51488e-18
-2.92994e-15
-6.72367e-18
-2.92297e-15
-6.9683e-18
-2.91574e-15
-7.22878e-18
-2.90826e-15
-7.48466e-18
-2.90053e-15
-7.72744e-18
-2.89256e-15
-7.96786e-18
-2.88433e-15
-8.22911e-18
-2.87581e-15
-8.52783e-18
-2.86694e-15
-8.86471e-18
-2.85772e-15
-9.22118e-18
-2.84815e-15
-9.57298e-18
-2.83824e-15
-9.90779e-18
-2.828e-15
-1.02365e-17
-2.81741e-15
-1.05885e-17
-2.80641e-15
-1.09973e-17
-2.79493e-15
-1.14798e-17
-2.78291e-15
-1.20273e-17
-2.77029e-15
-1.26189e-17
-2.75704e-15
-1.32405e-17
-2.74315e-15
-1.38991e-17
-2.72852e-15
-1.46244e-17
-2.71306e-15
-1.54565e-17
-2.69663e-15
-1.64305e-17
-2.67907e-15
-1.7562e-17
-2.66021e-15
-1.88576e-17
-2.63988e-15
-2.03304e-17
-2.61786e-15
-2.20179e-17
-2.59387e-15
-2.39906e-17
-2.56753e-15
-2.63433e-17
-2.53834e-15
-2.91898e-17
-2.50568e-15
-3.26598e-17
-2.46876e-15
-3.69179e-17
-2.42656e-15
-4.21992e-17
-2.37768e-15
-4.88868e-17
-2.32002e-15
-5.76566e-17
-2.2502e-15
-6.98155e-17
-2.16225e-15
-8.79508e-17
-2.04296e-15
-1.19295e-16
-1.84957e-15
-1.93391e-16
-1.48626e-15
-3.63308e-16
-8.5676e-16
-6.295e-16
5.42706e-17
-9.11029e-16
1.23037e-15
-1.1761e-15
2.3547e-15
-1.12433e-15
4.29561e-15
-1.94091e-15
5.18432e-15
-8.887e-16
7.90516e-15
-2.72084e-15
7.80201e-15
1.03145e-16
1.18518e-14
-4.04979e-15
8.46335e-15
3.38844e-15
1.57245e-14
-7.2611e-15
5.87085e-15
9.8536e-15
1.81565e-14
-1.22856e-14
1.97566e-15
1.61808e-14
1.6563e-14
-1.45874e-14
-1.16537e-16
1.66795e-14
2.21499e-14
-2.22665e-14
2.9825e-15
1.91674e-14
1.86696e-14
-1.56871e-14
4.41659e-15
1.4253e-14
-2.37617e-15
6.79276e-15
-8.21188e-15
5.83571e-15
-5.63912e-15
-2.57275e-15
-9.92365e-15
4.28453e-15
-7.75283e-15
-2.17082e-15
-9.8509e-15
2.09807e-15
-6.11349e-15
-3.73741e-15
-5.99044e-15
-1.23056e-16
-6.5478e-17
-5.92496e-15
6.93317e-16
-7.58794e-16
7.045e-15
-6.35169e-15
6.77073e-15
2.74275e-16
1.17157e-14
-4.94494e-15
9.02201e-15
2.69366e-15
1.25008e-14
-3.47876e-15
7.48956e-15
5.01122e-15
9.32362e-15
-1.83407e-15
1.60585e-15
7.71778e-15
3.463e-15
-1.85716e-15
-5.12733e-15
8.59034e-15
-1.97079e-15
-3.15654e-15
-1.01622e-14
8.19143e-15
-6.54906e-15
-3.61316e-15
-1.33352e-14
6.78613e-15
-9.24039e-15
-4.0948e-15
-1.39768e-14
4.73642e-15
-9.14141e-15
-4.83539e-15
-1.1767e-14
2.62558e-15
-6.47216e-15
-5.29483e-15
-7.58544e-15
1.11328e-15
-2.47209e-15
-5.11334e-15
-1.77597e-15
-6.96118e-16
3.44638e-15
-5.22235e-15
6.08181e-15
-2.63543e-15
1.2309e-14
-6.22719e-15
1.64093e-14
-4.10034e-15
2.40824e-14
-7.67308e-15
3.12715e-14
-7.1891e-15
3.79724e-14
-6.70088e-15
5.40181e-14
-1.60457e-14
5.82638e-14
-4.24573e-15
7.24732e-14
-1.42094e-14
1.28116e-13
-5.56426e-14
7.37898e-14
5.4326e-14
1.88254e-13
-1.14464e-13
1.31577e-13
5.66773e-14
2.17843e-13
-8.62661e-14
2.28153e-13
-1.03103e-14
1.65534e-13
6.26191e-14
1.26767e-13
3.87668e-14
9.21682e-14
3.45989e-14
6.79664e-14
2.42018e-14
5.12353e-14
1.6731e-14
4.02653e-14
1.097e-14
3.29216e-14
7.34377e-15
2.74822e-14
5.43934e-15
2.33303e-14
4.15191e-15
2.02658e-14
3.06451e-15
1.784e-14
2.42578e-15
1.56806e-14
2.15944e-15
1.35594e-14
2.1212e-15
1.18279e-14
1.73149e-15
1.00552e-14
1.77267e-15
8.41297e-15
1.64227e-15
6.80288e-15
1.61009e-15
5.14497e-15
1.65791e-15
3.49659e-15
1.64838e-15
1.89268e-15
1.60392e-15
2.88205e-16
1.60447e-15
-1.38075e-15
1.66896e-15
-3.15648e-15
1.77573e-15
-5.01302e-15
1.85655e-15
-6.84858e-15
1.83556e-15
-8.828e-15
1.97942e-15
-1.11385e-14
2.31054e-15
-1.33189e-14
2.18034e-15
-1.56725e-14
2.35357e-15
-1.81401e-14
2.46769e-15
-2.05096e-14
2.36948e-15
-2.245e-14
1.9404e-15
-2.34408e-14
9.90781e-16
-2.25715e-14
-8.69303e-16
-1.84458e-14
-4.12571e-15
-9.23832e-15
-9.20748e-15
7.19482e-15
-1.64331e-14
3.6231e-14
-2.90362e-14
-5.25857e-14
2.21288e-16
-5.10352e-15
1.2608e-16
-6.16407e-15
-4.25551e-17
-5.65397e-15
-1.58186e-16
-3.87657e-15
-1.64191e-16
-1.09632e-15
-8.89853e-17
2.45104e-15
4.48559e-18
6.64777e-15
8.31778e-17
1.13641e-14
1.36687e-16
1.64133e-14
1.67212e-16
2.16256e-14
1.81688e-16
2.68642e-14
1.87443e-16
3.20283e-14
1.90288e-16
3.70517e-14
1.93539e-16
4.1898e-14
1.9821e-16
4.65517e-14
2.03895e-16
5.10096e-14
2.0967e-16
5.52744e-14
2.14701e-16
5.93518e-14
2.18485e-16
6.32489e-14
2.20855e-16
6.69741e-14
2.21885e-16
7.05365e-14
2.21758e-16
7.39462e-14
2.2068e-16
7.72134e-14
2.1883e-16
8.03485e-14
2.16346e-16
8.33615e-14
2.13327e-16
8.62616e-14
2.09845e-16
8.90571e-14
2.05955e-16
9.17554e-14
2.01707e-16
9.43627e-14
1.97144e-16
9.68842e-14
1.92305e-16
9.9324e-14
1.87227e-16
1.01685e-13
1.81941e-16
1.03971e-13
1.76472e-16
1.06182e-13
1.70841e-16
1.08319e-13
1.65062e-16
1.10383e-13
1.59147e-16
1.12374e-13
1.531e-16
1.14292e-13
1.46927e-16
1.16134e-13
1.4063e-16
1.17901e-13
1.3421e-16
1.19591e-13
1.27666e-16
1.21203e-13
1.21001e-16
1.22735e-13
1.14213e-16
1.24186e-13
1.07307e-16
1.25553e-13
1.00282e-16
1.26837e-13
9.31447e-17
1.28035e-13
8.5898e-17
1.29146e-13
7.85475e-17
1.30169e-13
7.10996e-17
1.31103e-13
6.35625e-17
1.31947e-13
5.59441e-17
1.32699e-13
4.82528e-17
1.33359e-13
4.04992e-17
1.33927e-13
3.26932e-17
1.34401e-13
2.48452e-17
1.34782e-13
1.69654e-17
1.35068e-13
9.0654e-18
1.3526e-13
1.15551e-18
1.35357e-13
-6.75399e-18
1.35359e-13
-1.46534e-17
1.35266e-13
-2.25335e-17
1.35079e-13
-3.03851e-17
1.34797e-13
-3.82024e-17
1.34421e-13
-4.59787e-17
1.33951e-13
-5.37091e-17
1.33388e-13
-6.13914e-17
1.32731e-13
-6.90243e-17
1.31983e-13
-7.66078e-17
1.31143e-13
-8.41442e-17
1.30213e-13
-9.16368e-17
1.29193e-13
-9.90885e-17
1.28085e-13
-1.06504e-16
1.26889e-13
-1.13886e-16
1.25608e-13
-1.21234e-16
1.24241e-13
-1.28546e-16
1.22791e-13
-1.35811e-16
1.21259e-13
-1.43013e-16
1.19646e-13
-1.50126e-16
1.17953e-13
-1.57112e-16
1.16182e-13
-1.6392e-16
1.14333e-13
-1.70487e-16
1.12409e-13
-1.76738e-16
1.1041e-13
-1.8259e-16
1.08337e-13
-1.87955e-16
1.06191e-13
-1.92752e-16
1.0397e-13
-1.96918e-16
1.01677e-13
-2.00416e-16
9.93086e-14
-2.03255e-16
9.68646e-14
-2.05493e-16
9.43422e-14
-2.07239e-16
9.17378e-14
-2.08643e-16
8.90463e-14
-2.09874e-16
8.62613e-14
-2.11074e-16
8.33745e-14
-2.12307e-16
8.03761e-14
-2.1351e-16
7.72547e-14
-2.14455e-16
7.39983e-14
-2.14741e-16
7.05939e-14
-2.13836e-16
6.70294e-14
-2.11176e-16
6.32932e-14
-2.0629e-16
5.93757e-14
-1.9898e-16
5.52695e-14
-1.8952e-16
5.09698e-14
-1.78688e-16
4.64747e-14
-1.67372e-16
4.17857e-14
-1.58399e-16
3.69119e-14
-1.53681e-16
3.18699e-14
-1.59388e-16
2.66986e-14
-1.71631e-16
2.14496e-14
-1.71937e-16
1.62067e-14
-1.22607e-16
1.10887e-14
-9.82747e-18
6.29537e-15
1.55585e-16
2.04814e-15
2.38598e-16
-1.39215e-15
1.34227e-16
-3.9838e-15
-6.75333e-17
-5.6687e-15
-1.96407e-16
-6.16593e-15
-5.11548e-15
-5.9187e-14
-1.3442e-14
-6.89663e-14
2.63613e-16
-7.5818e-14
-2.7782e-15
-8.13148e-14
-1.45725e-14
-8.18282e-14
-2.80037e-14
-7.82879e-14
-4.44139e-14
-7.28145e-14
-6.56922e-14
-6.53842e-14
-9.32172e-14
-5.78382e-14
-1.26689e-13
-5.25291e-14
-1.65763e-13
-5.56727e-14
-2.05819e-13
-6.96152e-14
-2.3649e-13
-7.21646e-14
-2.46834e-13
-6.02103e-14
-2.44397e-13
-4.38357e-14
-2.38928e-13
-2.43717e-14
-2.35868e-13
-2.26387e-15
-2.38661e-13
2.06595e-14
-2.49255e-13
4.04818e-14
-2.67333e-13
5.79299e-14
-2.95163e-13
6.82329e-14
-3.3312e-13
5.81061e-14
-3.70966e-13
4.85183e-14
-4.00244e-13
3.92652e-14
-4.14408e-13
3.65559e-14
-4.22209e-13
3.65724e-14
-4.25513e-13
3.92716e-14
-4.28478e-13
4.26431e-14
-4.31523e-13
4.51329e-14
-4.33369e-13
4.76454e-14
-4.32724e-13
4.73999e-14
-4.26169e-13
4.96222e-14
-4.14417e-13
5.02539e-14
-3.97151e-13
5.05018e-14
-3.7116e-13
4.96437e-14
-3.34158e-13
4.49487e-14
-2.91303e-13
2.7474e-14
-2.3933e-13
-1.57801e-13
-5.15137e-15
1.5121e-16
-5.18929e-15
1.17079e-16
-5.25833e-15
1.36423e-16
-5.41099e-15
2.27776e-16
-5.572e-15
2.425e-16
-5.71665e-15
2.23398e-16
-5.83956e-15
1.94354e-16
-5.94057e-15
1.61607e-16
-6.01753e-15
1.24557e-16
-6.07042e-15
8.67048e-17
-6.10058e-15
5.13907e-17
-6.11267e-15
2.3512e-17
-6.11395e-15
6.83087e-18
-6.11184e-15
1.38364e-18
-6.1116e-15
3.8993e-18
-6.11551e-15
9.89001e-18
-6.12335e-15
1.56369e-17
-6.13344e-15
1.89864e-17
-6.14371e-15
1.9295e-17
-6.15237e-15
1.69802e-17
-6.15828e-15
1.30059e-17
-6.1611e-15
8.464e-18
-6.1611e-15
4.3025e-18
-6.159e-15
1.16776e-18
-6.15574e-15
-6.27827e-19
-6.15229e-15
-1.06885e-18
-6.14944e-15
-3.53123e-19
-6.14778e-15
1.19783e-18
-6.14766e-15
3.22636e-18
-6.14915e-15
5.38503e-18
-6.15215e-15
7.41175e-18
-6.15643e-15
9.10912e-18
-6.16165e-15
1.03684e-17
-6.16746e-15
1.11503e-17
-6.17352e-15
1.14691e-17
-6.17949e-15
1.13747e-17
-6.18513e-15
1.09372e-17
-6.19022e-15
1.02323e-17
-6.19461e-15
9.33184e-18
-6.1982e-15
8.29751e-18
-6.20093e-15
7.17994e-18
-6.20278e-15
6.01567e-18
-6.20376e-15
4.83305e-18
-6.20387e-15
3.65116e-18
-6.20317e-15
2.48487e-18
-6.20168e-15
1.34408e-18
-6.19945e-15
2.40424e-19
-6.19653e-15
-8.16061e-19
-6.19297e-15
-1.81523e-18
-6.1888e-15
-2.74553e-18
-6.18407e-15
-3.59716e-18
-6.17882e-15
-4.36141e-18
-6.17309e-15
-5.03383e-18
-6.16691e-15
-5.6134e-18
-6.1603e-15
-6.10565e-18
-6.15331e-15
-6.52305e-18
-6.14593e-15
-6.8853e-18
-6.1382e-15
-7.2153e-18
-6.13011e-15
-7.54104e-18
-6.12167e-15
-7.88653e-18
-6.1129e-15
-8.27209e-18
-6.10378e-15
-8.70829e-18
-6.09433e-15
-9.1949e-18
-6.08455e-15
-9.71797e-18
-6.07445e-15
-1.02547e-17
-6.06406e-15
-1.07752e-17
-6.05337e-15
-1.12504e-17
-6.04241e-15
-1.16563e-17
-6.03118e-15
-1.19832e-17
-6.01972e-15
-1.22342e-17
-6.00801e-15
-1.2431e-17
-5.99607e-15
-1.2605e-17
-5.98389e-15
-1.27923e-17
-5.97149e-15
-1.30225e-17
-5.95885e-15
-1.33167e-17
-5.94598e-15
-1.36804e-17
-5.93288e-15
-1.41009e-17
-5.91954e-15
-1.45503e-17
-5.90597e-15
-1.49965e-17
-5.89217e-15
-1.54096e-17
-5.87816e-15
-1.57661e-17
-5.86393e-15
-1.60575e-17
-5.84949e-15
-1.62889e-17
-5.83484e-15
-1.64772e-17
-5.81999e-15
-1.66456e-17
-5.80494e-15
-1.68173e-17
-5.78969e-15
-1.70119e-17
-5.77424e-15
-1.72415e-17
-5.75858e-15
-1.75085e-17
-5.7427e-15
-1.78099e-17
-5.7266e-15
-1.81369e-17
-5.71028e-15
-1.8478e-17
-5.69371e-15
-1.88214e-17
-5.67691e-15
-1.91583e-17
-5.65986e-15
-1.94811e-17
-5.64257e-15
-1.97856e-17
-5.62503e-15
-2.00721e-17
-5.60725e-15
-2.03447e-17
-5.58923e-15
-2.06109e-17
-5.57095e-15
-2.08793e-17
-5.55242e-15
-2.11587e-17
-5.53362e-15
-2.14554e-17
-5.51454e-15
-2.17712e-17
-5.49518e-15
-2.2104e-17
-5.47553e-15
-2.24488e-17
-5.45559e-15
-2.28016e-17
-5.43534e-15
-2.31597e-17
-5.4148e-15
-2.35245e-17
-5.39394e-15
-2.38984e-17
-5.37278e-15
-2.42847e-17
-5.3513e-15
-2.46858e-17
-5.32948e-15
-2.51016e-17
-5.30732e-15
-2.55303e-17
-5.28481e-15
-2.59705e-17
-5.26192e-15
-2.64229e-17
-5.23865e-15
-2.68906e-17
-5.215e-15
-2.73774e-17
-5.19095e-15
-2.78863e-17
-5.1665e-15
-2.8416e-17
-5.14164e-15
-2.89622e-17
-5.11636e-15
-2.9515e-17
-5.09066e-15
-3.0066e-17
-5.06453e-15
-3.0609e-17
-5.03794e-15
-3.11455e-17
-5.0109e-15
-3.1686e-17
-4.98338e-15
-3.22459e-17
-4.95536e-15
-3.28431e-17
-4.92685e-15
-3.34897e-17
-4.89781e-15
-3.41875e-17
-4.86825e-15
-3.49257e-17
-4.83814e-15
-3.56864e-17
-4.80748e-15
-3.64471e-17
-4.77624e-15
-3.71934e-17
-4.74442e-15
-3.79251e-17
-4.71198e-15
-3.86578e-17
-4.67891e-15
-3.9417e-17
-4.6452e-15
-4.02279e-17
-4.61082e-15
-4.1104e-17
-4.57574e-15
-4.20414e-17
-4.53995e-15
-4.30222e-17
-4.5034e-15
-4.40299e-17
-4.46607e-15
-4.50589e-17
-4.42792e-15
-4.61212e-17
-4.3889e-15
-4.72412e-17
-4.34899e-15
-4.84393e-17
-4.30813e-15
-4.972e-17
-4.26628e-15
-5.10744e-17
-4.22337e-15
-5.24854e-17
-4.17932e-15
-5.39503e-17
-4.13407e-15
-5.54879e-17
-4.08752e-15
-5.7137e-17
-4.03958e-15
-5.89397e-17
-3.99013e-15
-6.09258e-17
-3.93905e-15
-6.31045e-17
-3.8862e-15
-6.54748e-17
-3.83139e-15
-6.80454e-17
-3.77444e-15
-7.08503e-17
-3.71511e-15
-7.39539e-17
-3.65312e-15
-7.74361e-17
-3.58817e-15
-8.13808e-17
-3.51987e-15
-8.5868e-17
-3.44774e-15
-9.09798e-17
-3.37125e-15
-9.68275e-17
-3.2897e-15
-1.03568e-16
-3.20226e-15
-1.11432e-16
-3.10788e-15
-1.20721e-16
-3.00523e-15
-1.31838e-16
-2.89259e-15
-1.45306e-16
-2.76766e-15
-1.61846e-16
-2.62735e-15
-1.8251e-16
-2.46731e-15
-2.08918e-16
-2.28127e-15
-2.43699e-16
-2.05977e-15
-2.9132e-16
-1.78764e-15
-3.60087e-16
-1.43955e-15
-4.67379e-16
-9.87432e-16
-6.45511e-16
-4.24429e-16
-9.26309e-16
2.44312e-16
-1.29824e-15
1.03202e-15
-1.69873e-15
1.90509e-15
-2.04917e-15
3.13873e-15
-2.35797e-15
3.89247e-15
-2.69465e-15
5.72891e-15
-2.72514e-15
6.01154e-15
-3.00347e-15
8.73809e-15
-2.6234e-15
7.68162e-15
-2.99332e-15
1.2683e-14
-1.61294e-15
9.51316e-15
-4.09125e-15
1.77139e-14
1.65288e-15
1.5025e-14
-9.59677e-15
2.36077e-14
7.59813e-15
2.35556e-14
-1.45352e-14
2.91342e-14
1.1101e-14
6.86337e-16
6.18136e-15
1.53975e-14
4.45622e-15
-2.07764e-16
-8.17743e-17
-1.45382e-16
1.41906e-14
9.0809e-15
-2.43352e-15
1.18421e-14
3.07449e-15
6.07548e-15
3.19389e-15
7.01311e-15
3.3469e-15
2.20153e-15
2.64075e-15
2.45965e-15
1.83995e-15
-5.27658e-17
-1.22499e-15
2.40384e-15
-2.57966e-15
1.10813e-15
-4.62925e-15
4.80042e-15
-4.45108e-15
3.56235e-15
-5.11362e-15
7.30018e-15
-3.46356e-15
5.38229e-15
-3.02705e-15
8.63338e-15
-5.57434e-16
5.12275e-15
3.18805e-17
7.72153e-15
2.41244e-15
3.75117e-15
2.13629e-15
7.0976e-15
4.37134e-15
2.18104e-15
3.05941e-15
5.68942e-15
5.08196e-15
-9.14784e-16
3.44766e-15
2.88486e-15
4.39179e-15
-2.68947e-15
1.96117e-15
1.36957e-15
2.7271e-15
-2.56554e-15
-1.59693e-16
1.92507e-15
2.45804e-16
-4.73897e-16
-2.43642e-15
4.55223e-15
-2.40055e-15
3.75636e-15
-4.49895e-15
9.38681e-15
-4.51717e-15
1.06497e-14
-6.37619e-15
1.68294e-14
-6.87589e-15
2.03242e-14
-8.71715e-15
2.751e-14
-9.82117e-15
3.31563e-14
-1.18735e-14
4.24979e-14
-1.34419e-14
5.10731e-14
-1.62483e-14
6.248e-14
-1.8596e-14
7.80334e-14
-2.22542e-14
9.02536e-14
-2.82658e-14
1.17872e-13
-3.18645e-14
1.51211e-13
-4.75479e-14
1.57824e-13
-6.2256e-14
2.62672e-13
-5.05219e-14
2.67952e-13
-1.19744e-13
2.73223e-13
5.14066e-14
2.25502e-13
-3.85455e-14
1.92515e-13
2.26767e-14
2.51644e-13
3.49061e-15
2.16596e-13
7.38143e-14
1.85236e-13
6.59595e-14
1.55403e-13
5.40345e-14
1.30134e-13
4.20001e-14
1.09262e-13
3.18417e-14
9.31901e-14
2.34158e-14
8.08229e-14
1.78065e-14
7.10238e-14
1.39509e-14
6.2988e-14
1.11004e-14
5.62923e-14
9.12146e-15
5.05775e-14
7.87428e-15
4.56318e-14
7.06683e-15
4.09252e-14
6.43811e-15
3.66159e-14
6.08198e-15
3.24183e-14
5.83987e-15
2.83217e-14
5.7067e-15
2.43123e-14
5.66734e-15
2.03101e-14
5.65059e-15
1.62752e-14
5.63878e-15
1.21745e-14
5.70512e-15
7.96358e-15
5.87992e-15
3.62484e-15
6.11447e-15
-8.94009e-16
6.37539e-15
-5.75369e-15
6.69524e-15
-1.09292e-14
7.15492e-15
-1.62486e-14
7.62991e-15
-2.19478e-14
7.87963e-15
-2.76269e-14
8.03264e-15
-3.31055e-14
7.94626e-15
-3.80253e-14
7.28929e-15
-4.1732e-14
5.64712e-15
-4.32276e-14
2.48638e-15
-4.13416e-14
-2.75526e-15
-3.49749e-14
-1.04924e-14
-2.34099e-14
-2.07725e-14
-6.25427e-15
-3.35887e-14
-4.87325e-14
-1.43264e-13
-2.10863e-14
-1.29174e-13
-2.02856e-14
-1.16727e-13
-1.81756e-14
-1.05512e-13
-1.60518e-14
-9.5485e-14
-1.40584e-14
-8.65116e-14
-1.22764e-14
-7.85807e-14
-1.07329e-14
-7.16303e-14
-9.30486e-15
-6.56442e-14
-7.87505e-15
-6.06692e-14
-6.48358e-15
-5.67279e-14
-5.17225e-15
-5.37755e-14
-3.91257e-15
-5.15136e-14
-2.71253e-15
-5.01593e-14
-1.72766e-15
-4.94708e-14
-8.11318e-16
-4.92899e-14
5.08996e-17
-4.97118e-14
7.6812e-16
-5.06125e-14
1.4271e-15
-5.19516e-14
2.06814e-15
-5.37235e-14
2.68163e-15
-5.59436e-14
3.2815e-15
-5.86465e-14
3.91737e-15
-6.18114e-14
4.64288e-15
-6.55821e-14
5.44897e-15
-7.02018e-14
6.44705e-15
-7.55791e-14
7.83354e-15
-8.23935e-14
9.53855e-15
-9.0896e-14
1.18812e-14
-1.01658e-13
1.51519e-14
-1.15119e-13
1.95231e-14
-1.32505e-13
2.53647e-14
-1.5496e-13
3.34744e-14
-1.83932e-13
4.49229e-14
-2.18229e-13
5.79744e-14
-2.56115e-13
7.06385e-14
-2.90607e-13
7.66245e-14
-3.34212e-13
8.07308e-14
-2.80446e-13
-2.38439e-15
-2.93302e-13
-3.05298e-14
-2.98937e-13
-3.39903e-14
-2.67363e-13
-1.84865e-14
-2.57394e-13
-1.0655e-13
-1.66028e-13
-5.4202e-14
-1.58832e-13
-6.33507e-14
-1.2425e-13
-4.85451e-14
-9.84958e-14
-3.47711e-14
-8.38672e-14
-2.99361e-14
-6.77535e-14
-2.34165e-14
-5.56945e-14
-1.9035e-14
-4.60412e-14
-1.63317e-14
-3.6973e-14
-1.38942e-14
-3.02864e-14
-1.23631e-14
-2.30075e-14
-1.06145e-14
-1.89194e-14
-9.45221e-15
-1.24731e-14
-7.52104e-15
-1.07864e-14
-6.87252e-15
-5.12087e-15
-4.90681e-15
-5.39232e-15
-4.62539e-15
-5.38484e-16
-2.54687e-15
-2.47994e-15
-2.40605e-15
1.71289e-15
1.97183e-16
-1.77069e-15
-6.96913e-18
1.95138e-15
2.67585e-15
-3.17485e-15
2.07187e-15
2.36743e-16
4.28412e-15
-5.8802e-15
3.46715e-15
-2.79311e-15
4.88987e-15
-7.20243e-15
3.02276e-15
-4.201e-15
4.21952e-15
-7.75435e-15
2.12933e-15
-5.38056e-15
2.22897e-15
-8.5608e-15
-3.81701e-17
-5.51619e-15
-7.18863e-16
-7.20405e-15
-3.08092e-15
-3.56491e-15
-3.53386e-15
-4.66753e-15
-5.12071e-15
-1.04444e-15
-4.4748e-15
-2.22818e-15
-4.63088e-15
1.44506e-16
-2.62949e-15
-2.30633e-15
-1.21753e-15
-2.09136e-15
1.87367e-15
-6.85969e-15
2.66464e-15
-5.98168e-15
3.40987e-15
-1.17941e-14
3.26228e-15
-9.1148e-15
2.91523e-15
4.20537e-16
-2.59534e-15
3.29818e-16
1.35733e-14
-1.53065e-14
1.7304e-16
-2.39825e-16
5.52638e-15
-2.92457e-14
6.36271e-15
-2.36914e-14
1.06163e-14
-2.36096e-14
-1.47365e-14
-1.49557e-14
7.53906e-15
-1.75878e-14
-9.66427e-15
-9.36946e-15
1.69798e-15
-1.25471e-14
-4.08669e-15
-7.55453e-15
-1.57819e-15
-8.62079e-15
-2.97004e-15
-5.90043e-15
-2.59987e-15
-5.62898e-15
-2.98663e-15
-3.79188e-15
-2.71195e-15
-3.04964e-15
-2.6893e-15
-1.81566e-15
-2.35344e-15
-9.46869e-16
-2.04667e-15
-1.61281e-16
-1.69734e-15
5.05247e-16
-1.29715e-15
1.06615e-15
-9.24843e-16
1.51625e-15
-6.43091e-16
1.86217e-15
-4.64061e-16
2.13197e-15
-3.56344e-16
2.3511e-15
-2.87567e-16
2.53476e-15
-2.40056e-16
2.69241e-15
-2.05303e-16
2.83039e-15
-1.78892e-16
2.95307e-15
-1.58404e-16
3.06356e-15
-1.42254e-16
3.16412e-15
-1.29161e-16
3.25646e-15
-1.18124e-16
3.34194e-15
-1.08621e-16
3.42164e-15
-1.0054e-16
3.49641e-15
-9.38659e-17
3.56689e-15
-8.83785e-17
3.63363e-15
-8.36692e-17
3.69707e-15
-7.9392e-17
3.75762e-15
-7.54448e-17
3.8156e-15
-7.19156e-17
3.87128e-15
-6.88741e-17
3.92489e-15
-6.62361e-17
3.97661e-15
-6.38346e-17
4.02662e-15
-6.15633e-17
4.07505e-15
-5.94594e-17
4.12202e-15
-5.76022e-17
4.16762e-15
-5.59857e-17
4.21195e-15
-5.44675e-17
4.2551e-15
-5.2891e-17
4.29715e-15
-5.12229e-17
4.33816e-15
-4.96048e-17
4.37819e-15
-4.82292e-17
4.41728e-15
-4.7175e-17
4.45548e-15
-4.63246e-17
4.49284e-15
-4.54554e-17
4.5294e-15
-4.44014e-17
4.5652e-15
-4.31764e-17
4.60026e-15
-4.19433e-17
4.6346e-15
-4.08778e-17
4.66824e-15
-4.00341e-17
4.70121e-15
-3.93238e-17
4.73352e-15
-3.86074e-17
4.76522e-15
-3.78066e-17
4.79632e-15
-3.69583e-17
4.82684e-15
-3.61595e-17
4.85679e-15
-3.5478e-17
4.8862e-15
-3.48807e-17
4.91508e-15
-3.42738e-17
4.94345e-15
-3.3571e-17
4.97133e-15
-3.2771e-17
4.99872e-15
-3.19564e-17
5.02563e-15
-3.12383e-17
5.05206e-15
-3.06783e-17
5.07805e-15
-3.02482e-17
5.10361e-15
-2.98631e-17
5.12876e-15
-2.94299e-17