/*--------------------------------*- C++ -*----------------------------------*\
| =========                 |                                                 |
| \\      /  F ield         | OpenFOAM: The Open Source CFD Toolbox           |
|  \\    /   O peration     | Version:  2.2.1                                 |
|   \\  /    A nd           | Web:      www.OpenFOAM.org                      |
|    \\/     M anipulation  |                                                 |
\*---------------------------------------------------------------------------*/
FoamFile
{
    version     2.0;
    format      ascii;
    class       volVectorField;
    location    "2.5e-05";
    object      U;
}
// * * * * * * * * * * * * * * * * * * * * * * * * * * * * * * * * * * * * * //

dimensions      [0 1 -1 0 0 0 0];

internalField   nonuniform List<vector> 
22464
(
(-0.0262639 0.142108 3.29239e-43)
(-0.0137194 0.124082 9.12862e-45)
(-0.0109847 0.110545 0)
(-0.00944637 0.0950177 -2.46734e-44)
(-0.00848144 0.0814236 -7.52849e-44)
(-0.00768645 0.0702963 -3.74937e-44)
(-0.00706791 0.0613231 2.27798e-44)
(-0.00640173 0.0539931 1.95162e-44)
(-0.00584376 0.0478872 0)
(-0.00543935 0.0428885 -1.63942e-43)
(-0.00505239 0.0388926 -1.12495e-46)
(-0.00464096 0.035664 1.71971e-43)
(-0.00434968 0.0330846 6.16972e-45)
(-0.00448767 0.0313442 8.40773e-45)
(-0.00424492 0.0303651 0)
(-0.00429345 0.0297981 1.57826e-43)
(-0.00458812 0.0299203 1.54003e-43)
(-0.00471151 0.030675 -1.46273e-43)
(-0.00497065 0.0318182 -1.40034e-43)
(-0.00533798 0.033431 0)
(-0.00575223 0.0355359 1.23645e-43)
(-0.00618952 0.0380723 1.11139e-43)
(-0.00668387 0.0410122 0)
(-0.00737046 0.0444603 4.40074e-45)
(-0.00803466 0.0484839 0)
(-0.00868665 0.0530169 7.14053e-44)
(-0.00997556 0.0584245 1.07127e-43)
(-0.0109345 0.065007 -1.49093e-44)
(-0.012399 0.0727469 3.11933e-52)
(-0.0144861 0.0825549 2.34421e-44)
(-0.0176508 0.0956371 3.02322e-44)
(-0.0215304 0.113178 3.35037e-44)
(-0.0273515 0.136819 -4.1093e-44)
(-0.0368103 0.170477 -3.96135e-44)
(-0.0518377 0.220289 -4.05108e-43)
(-0.0723261 0.293003 -1.62847e-42)
(-0.0977723 0.391739 -1.62189e-42)
(-0.117994 0.501601 -2.36414e-42)
(-0.16209 0.583903 -7.59101e-42)
(-0.152602 0.568747 -3.65766e-42)
(-0.218257 0.507619 -4.60239e-43)
(-0.177464 0.468876 -1.52792e-43)
(-0.0179352 0.422172 -4.92747e-42)
(-0.101121 0.291507 -1.71195e-42)
(0.00760193 0.270834 5.71756e-42)
(-0.017824 0.186176 -1.58129e-50)
(-0.0174137 0.149087 -1.24925e-42)
(-0.00505434 0.120199 -4.66721e-43)
(-0.00850738 0.0912363 -2.62344e-43)
(-0.00555479 0.0723249 -5.42211e-43)
(-0.00244665 0.0551112 7.56581e-52)
(-0.00230169 0.0397752 3.83949e-44)
(0.000427954 0.0266873 9.29484e-45)
(0.000102917 0.0145253 7.50692e-44)
(0.00387519 0.00372873 -2.46265e-43)
(0.000989945 -0.00540541 9.00783e-52)
(0.00631051 -0.0126312 5.42932e-43)
(0.00133906 -0.0193325 2.52308e-43)
(0.00781663 -0.0238178 2.90561e-43)
(0.00126634 -0.028206 6.92965e-43)
(0.00831125 -0.0299145 -2.17217e-51)
(-0.000245457 -0.031038 -8.04506e-43)
(0.00744068 -0.0287619 2.31826e-43)
(-0.00273623 -0.0262792 6.49477e-43)
(0.0060178 -0.0205827 -1.28157e-43)
(-0.00533211 -0.0158181 -1.63184e-43)
(0.00389971 -0.00798497 2.64803e-43)
(-0.00757317 -0.00245841 2.23957e-43)
(0.000417856 0.00716895 1.00742e-43)
(-0.00922853 0.0136477 -4.37134e-43)
(-0.001756 0.0224437 -5.1576e-43)
(-0.00829196 0.0258737 2.11122e-43)
(-0.000910868 0.0288145 9.65067e-44)
(-0.00622803 0.026905 -6.16474e-43)
(0.00119039 0.0246795 -2.78443e-43)
(-0.00273977 0.0178552 -2.02846e-43)
(0.00471484 0.01065 7.63396e-45)
(0.000744764 0.000714403 3.51228e-44)
(0.00696771 -0.00737658 -1.78583e-44)
(0.00265235 -0.0160977 2.31788e-43)
(0.00686592 -0.0208794 2.20858e-43)
(0.00147472 -0.0236632 -3.40339e-43)
(0.00564214 -0.0228468 -2.75634e-43)
(-0.00100612 -0.0211445 9.09605e-44)
(0.00526021 -0.0180171 -1.1555e-43)
(-0.00432141 -0.014054 -2.51489e-43)
(-0.00733349 0.00169415 -1.30278e-43)
(-0.0183497 0.024573 5.05496e-43)
(0.0124404 0.0295821 -1.91981e-43)
(-0.0236069 0.0283596 8.97324e-43)
(0.0190415 0.0319727 2.4255e-43)
(-0.0192378 0.0202844 3.91568e-43)
(0.0122151 0.0258711 -3.76284e-43)
(-0.0220119 0.0221761 5.82013e-43)
(0.00837015 0.0321815 2.8348e-43)
(-0.0150515 0.026335 0)
(0.00281916 0.0316112 -1.37541e-43)
(-0.0075391 0.0260907 -5.11284e-43)
(0.000308485 0.0255556 -1.25025e-50)
(-0.0031768 0.020407 2.54209e-43)
(0.000215806 0.0170914 0)
(-0.000975508 0.0123562 1.43501e-44)
(0.000651087 0.00868321 2.19038e-44)
(0.000381634 0.00469482 2.68237e-46)
(0.000872698 0.00163185 0)
(0.00100301 -0.00107835 -1.44331e-44)
(0.00100074 -0.00311909 -3.26196e-44)
(0.000913442 -0.00443673 -4.38315e-44)
(0.000848546 -0.00516733 -4.41363e-44)
(0.000841177 -0.00556173 -4.38244e-44)
(0.000858034 -0.00581502 -4.47943e-44)
(0.000876982 -0.00600907 -4.35014e-44)
(0.000894479 -0.00616779 -4.34653e-44)
(0.0009099 -0.00630107 -4.34099e-44)
(0.000923101 -0.00641527 -4.3895e-44)
(0.000934654 -0.00651453 0)
(0.000945347 -0.00660172 0)
(0.000955406 -0.00667913 -4.30852e-44)
(0.000964459 -0.00674869 -4.34352e-44)
(0.000972175 -0.00681179 0)
(0.000978826 -0.0068692 0)
(0.000985086 -0.00692154 -1.70004e-52)
(0.000991398 -0.00696959 -2.88461e-46)
(0.000997663 -0.00701428 -4.25108e-44)
(0.0010035 -0.00705639 -4.23835e-44)
(0.00100872 -0.00709624 0)
(0.0010135 -0.00713383 0)
(0.00101812 -0.00716918 -4.19244e-44)
(0.00102271 -0.00720255 -4.17773e-44)
(0.00102715 -0.00723435 0)
(0.00103129 -0.00726492 0)
(0.00103515 -0.0072944 0)
(0.00103892 -0.00732278 0)
(0.00104276 -0.00735005 -4.11287e-44)
(0.00104663 -0.00737626 -4.10674e-44)
(0.0010503 -0.00740152 -4.08274e-44)
(0.00105357 -0.00742581 -4.09267e-44)
(0.00105644 -0.00744911 0)
(0.00105918 -0.00747145 0)
(0.00106207 -0.00749296 -4.04318e-44)
(0.00106521 -0.00751388 -4.03239e-44)
(0.00106845 -0.0075344 0)
(0.00107148 -0.00755453 0)
(0.00107411 -0.00757407 4.03324e-44)
(0.00107638 -0.00759281 4.00373e-44)
(0.00107854 -0.00761064 -3.98682e-44)
(0.00108082 -0.00762766 -3.95556e-44)
(0.00108326 -0.00764411 0)
(0.00108573 -0.00766022 -1.39593e-46)
(0.00108804 -0.00767607 0)
(0.00109012 -0.0076916 0)
(0.00109207 -0.00770671 0)
(0.00109404 -0.00772135 -3.89701e-44)
(0.00109611 -0.00773556 -3.88632e-44)
(0.00109821 -0.0077494 3.87775e-44)
(0.00110018 -0.00776284 7.73835e-44)
(0.00110193 -0.00777581 7.7158e-44)
(0.00110346 -0.0077882 3.85555e-44)
(0.00110492 -0.00780003 -3.82432e-44)
(0.00110642 -0.00781139 -3.80584e-44)
(0.00110805 -0.00782247 -3.77937e-44)
(0.00110974 -0.00783345 -3.77725e-44)
(0.00111142 -0.00784437 0)
(0.00111298 -0.00785517 1.05024e-46)
(0.00111442 -0.00786571 -3.74689e-44)
(0.00111576 -0.00787589 -1.05485e-46)
(0.00111705 -0.00788563 1.02768e-46)
(0.00111835 -0.00789498 -3.70771e-44)
(0.00111964 -0.00790399 0)
(0.00112089 -0.00791271 -3.68131e-44)
(0.00112206 -0.00792116 -3.66721e-44)
(0.00112316 -0.00792938 -3.64167e-44)
(0.00112423 -0.00793739 -7.27228e-44)
(0.00112532 -0.00794526 -8.93476e-47)
(0.00112647 -0.00795306 8.22669e-47)
(0.00112767 -0.00796081 -7.19831e-44)
(0.00112887 -0.00796848 -3.59975e-44)
(0.00112997 -0.00797596 -3.58402e-44)
(0.00113093 -0.00798311 -7.14862e-44)
(0.00113175 -0.00798987 -3.57104e-44)
(0.0011325 -0.00799624 -3.54537e-44)
(0.00113327 -0.00800235 -3.5287e-44)
(0.00113413 -0.00800837 3.5138e-44)
(0.00113512 -0.00801444 7.00493e-44)
(0.00113616 -0.0080206 6.9897e-44)
(0.00113717 -0.00802679 3.49676e-44)
(0.00113807 -0.00803284 -3.48357e-44)
(0.0011388 -0.00803859 -3.4753e-44)
(0.0011394 -0.00804396 -3.45556e-44)
(0.00113995 -0.00804897 -6.89972e-44)
(0.00114055 -0.00805374 -3.43562e-44)
(0.00114125 -0.00805845 3.42319e-44)
(0.00114205 -0.00806322 4.51005e-52)
(0.00114288 -0.0080681 -5.94853e-47)
(0.00114368 -0.00807299 6.33297e-47)
(0.00114437 -0.00807777 -3.39653e-44)
(0.00114495 -0.00808229 0)
(0.00114544 -0.00808646 -3.37854e-44)
(0.00114589 -0.0080903 -3.36631e-44)
(0.00114634 -0.00809389 -3.34683e-44)
(0.00114684 -0.00809733 -6.68245e-44)
(0.00114737 -0.0081007 -5.85504e-47)
(0.00114791 -0.00810404 5.8189e-47)
(0.00114841 -0.0081073 -6.62381e-44)
(0.00114885 -0.00811043 -3.3087e-44)
(0.00114923 -0.00811335 3.29191e-44)
(0.00114955 -0.00811604 3.28017e-44)
(0.00114986 -0.0081185 -6.2223e-47)
(0.00115016 -0.00812078 -3.25536e-44)
(0.00115049 -0.00812293 -5.72892e-47)
(0.00115081 -0.00812493 3.23285e-44)
(0.00115109 -0.00812678 -3.22241e-44)
(0.00115132 -0.00812841 -1.21118e-51)
(0.00115145 -0.00812974 6.39906e-44)
(0.00115152 -0.00813073 6.16794e-47)
(0.00115151 -0.00813139 -3.17052e-44)
(0.00115148 -0.00813174 -3.14866e-44)
(0.00115146 -0.00813186 -6.27678e-44)
(0.00115145 -0.00813183 -4.84534e-47)
(0.00115145 -0.00813169 4.53843e-47)
(0.00115144 -0.00813142 -3.09835e-44)
(0.00115138 -0.00813095 3.08277e-44)
(0.00115124 -0.0081302 4.77051e-47)
(0.001151 -0.00812907 -3.06376e-44)
(0.00115066 -0.00812751 0)
(0.00115025 -0.00812552 -3.03453e-44)
(0.00114981 -0.00812315 -4.41511e-47)
(0.00114936 -0.00812052 3.00329e-44)
(0.00114893 -0.00811772 -2.98974e-44)
(0.00114853 -0.00811484 -2.76153e-47)
(0.00114813 -0.00811188 2.48289e-47)
(0.00114771 -0.00810882 -5.92866e-44)
(0.00114723 -0.00810557 -2.96211e-44)
(0.00114668 -0.00810205 -2.95535e-44)
(0.00114604 -0.00809819 -2.95093e-44)
(0.00114533 -0.00809397 0)
(0.00114458 -0.0080894 -2.94162e-44)
(0.00114382 -0.00808454 -1.62025e-47)
(0.00114305 -0.00807943 2.93532e-44)
(0.00114227 -0.0080741 -2.93458e-44)
(0.00114146 -0.00806852 -2.93584e-44)
(0.00114058 -0.0080626 0)
(0.0011396 -0.00805623 -2.93755e-44)
(0.00113848 -0.00804928 -2.93662e-44)
(0.00113722 -0.00804164 -2.93134e-44)
(0.00113582 -0.00803328 -5.85238e-44)
(0.00113432 -0.00802423 -2.91685e-44)
(0.00113276 -0.00801462 -2.90614e-44)
(0.00113119 -0.00800458 -2.89572e-44)
(0.00112964 -0.00799429 1.77329e-47)
(0.00112812 -0.00798384 -2.88233e-44)
(0.00112661 -0.00797325 -5.76247e-44)
(0.00112505 -0.00796244 -2.8836e-44)
(0.0011234 -0.00795122 -2.88804e-44)
(0.00112158 -0.00793933 -2.89254e-44)
(0.00111955 -0.00792653 -1.06918e-61)
(0.00111729 -0.0079126 -2.8931e-44)
(0.0011148 -0.00789744 -2.88587e-44)
(0.00111213 -0.00788107 -3.81727e-48)
(0.00110932 -0.00786363 -2.85385e-44)
(0.00110646 -0.00784539 -2.8322e-44)
(0.0011036 -0.00782664 -2.80789e-44)
(0.00110082 -0.00780777 -1.11336e-47)
(0.00109822 -0.00778918 2.76085e-44)
(0.0010959 -0.00777137 2.74112e-44)
(0.00109399 -0.00775499 5.45145e-44)
(0.00109264 -0.00774085 2.7135e-44)
(0.00109189 -0.00772973 -2.70297e-44)
(0.00109156 -0.00772196 -9.74193e-48)
(0.00109107 -0.00771666 2.69106e-44)
(0.00108933 -0.00771091 4.29613e-48)
(0.00108485 -0.00769922 -2.67491e-44)
(0.00107609 -0.00767396 -2.64917e-44)
(0.0010621 -0.00762701 1.29619e-46)
(0.00104306 -0.00755287 2.10792e-46)
(0.00102073 -0.00745176 2.76211e-46)
(0.000998704 -0.00732644 0)
(0.00098229 -0.00718616 -2.37009e-46)
(0.000971588 -0.0070441 1.36579e-46)
(0.000961364 -0.00691749 -5.40559e-49)
(0.000927342 -0.00680322 -1.08303e-44)
(0.00087889 -0.00666288 -1.04073e-44)
(0.000803347 -0.00644457 -3.53488e-46)
(0.000718863 -0.0061891 -3.2048e-45)
(0.00055254 -0.00547186 -2.45319e-45)
(-0.000554131 -0.00550824 2.0951e-45)
(-0.000721128 -0.00621017 -3.45904e-45)
(-0.000810856 -0.0064617 1.43056e-46)
(-0.000892088 -0.00667268 5.20088e-45)
(-0.000938459 -0.00680603 2.45933e-46)
(-0.000954158 -0.00693264 -2.80398e-46)
(-0.000964868 -0.00707184 -2.13619e-46)
(-0.000980563 -0.00721797 2.7226e-46)
(-0.00100255 -0.00736009 -1.80796e-46)
(-0.00102665 -0.00748323 -2.10687e-46)
(-0.00104888 -0.00757832 -1.43254e-46)
(-0.00106684 -0.00764243 -1.26092e-47)
(-0.00107919 -0.00767921 -2.20641e-47)
(-0.00108603 -0.007697 -1.25832e-47)
(-0.00108884 -0.00770594 0)
(-0.00108964 -0.00771441 -2.8499e-47)
(-0.00109019 -0.00772713 -4.3703e-49)
(-0.0010915 -0.00774521 -2.68993e-44)
(-0.00109389 -0.00776729 -2.15534e-49)
(-0.00109716 -0.00779093 2.74345e-44)
(-0.00110087 -0.00781367 -2.76961e-44)
(-0.00110456 -0.00783367 -2.79348e-44)
(-0.00110785 -0.00785002 3.71722e-51)
(-0.00111055 -0.00786267 -2.83362e-44)
(-0.0011126 -0.00787218 -5.69759e-44)
(-0.00111408 -0.00787952 -4.5343e-51)
(-0.00111514 -0.00788577 2.87618e-44)
(-0.00111597 -0.00789193 6.09001e-48)
(-0.00111673 -0.00789877 1.22715e-50)
(-0.00111758 -0.00790679 -6.7484e-48)
(-0.0011186 -0.00791623 2.9023e-44)
(-0.00111985 -0.00792708 2.90592e-44)
(-0.00112135 -0.00793917 -2.90844e-44)
(-0.00112305 -0.00795223 -5.82023e-44)
(-0.00112492 -0.00796595 -2.91132e-44)
(-0.00112692 -0.00798001 -4.75641e-47)
(-0.00112898 -0.00799412 -2.91414e-44)
(-0.00113106 -0.00800806 -2.91676e-44)
(-0.00113312 -0.00802165 -2.92077e-44)
(-0.00113513 -0.00803474 -5.853e-44)
(-0.00113705 -0.00804724 -2.93451e-44)
(-0.00113889 -0.00805907 -2.94353e-44)
(-0.00114063 -0.00807018 -2.9545e-44)
(-0.00114226 -0.0080805 0)
(-0.00114377 -0.00808999 -2.97705e-44)
(-0.00114517 -0.00809861 -2.99151e-44)
(-0.00114645 -0.00810632 3.00304e-44)
(-0.0011476 -0.0081131 2.20015e-47)
(-0.00114863 -0.00811895 -3.0213e-44)
(-0.00114952 -0.0081239 0)
(-0.0011503 -0.00812799 -3.03119e-44)
(-0.00115095 -0.0081313 -3.03315e-44)
(-0.00115148 -0.00813394 -3.03126e-44)
(-0.00115191 -0.00813604 -6.06717e-44)
(-0.00115225 -0.00813774 -3.27106e-47)
(-0.00115251 -0.00813918 3.83876e-47)
(-0.00115273 -0.00814048 -3.03795e-44)
(-0.0011529 -0.00814176 3.04381e-44)
(-0.00115306 -0.00814307 5.65185e-47)
(-0.0011532 -0.00814443 -3.06494e-44)
(-0.00115334 -0.0081458 0)
(-0.0011535 -0.00814708 -3.0968e-44)
(-0.00115365 -0.00814816 -6.30586e-47)
(-0.0011538 -0.00814892 3.13839e-44)
(-0.00115392 -0.00814925 -3.1487e-44)
(-0.001154 -0.00814907 -5.4008e-47)
(-0.00115402 -0.00814838 5.20932e-47)
(-0.00115397 -0.0081472 -6.36852e-44)
(-0.00115385 -0.00814565 -3.19769e-44)
(-0.00115365 -0.00814386 -3.19987e-44)
(-0.0011534 -0.00814196 -6.29326e-47)
(-0.00115309 -0.00814009 6.43668e-44)
(-0.00115277 -0.0081383 6.35079e-53)
(-0.00115244 -0.00813659 -3.24567e-44)
(-0.00115212 -0.0081349 3.26225e-44)
(-0.00115182 -0.00813312 7.21728e-47)
(-0.00115153 -0.00813108 -3.29602e-44)
(-0.00115124 -0.00812867 6.37116e-47)
(-0.00115091 -0.00812578 3.32218e-44)
(-0.00115054 -0.00812237 3.33054e-44)
(-0.0011501 -0.00811849 -3.3302e-44)
(-0.00114958 -0.00811421 -6.67828e-44)
(-0.00114899 -0.00810967 -6.28827e-47)
(-0.00114834 -0.00810498 6.7159e-47)
(-0.00114764 -0.00810026 -6.69362e-44)
(-0.00114692 -0.00809558 -3.35901e-44)
(-0.0011462 -0.00809094 -3.358e-44)
(-0.00114549 -0.00808633 -3.36566e-44)
(-0.00114479 -0.00808169 0)
(-0.0011441 -0.00807693 -3.38237e-44)
(-0.0011434 -0.008072 -6.97438e-47)
(-0.0011427 -0.00806684 6.83508e-47)
(-0.00114196 -0.00806141 1.28753e-52)
(-0.00114119 -0.00805571 3.40772e-44)
(-0.00114039 -0.00804976 -3.4118e-44)
(-0.00113954 -0.00804358 -6.83093e-44)
(-0.00113865 -0.00803722 -3.42657e-44)
(-0.00113774 -0.00803073 -3.42302e-44)
(-0.0011368 -0.00802414 -3.42755e-44)
(-0.00113584 -0.00801749 3.42474e-44)
(-0.00113487 -0.00801078 6.87818e-44)
(-0.00113389 -0.00800402 6.89243e-44)
(-0.0011329 -0.00799718 3.45418e-44)
(-0.00113191 -0.00799025 -3.4629e-44)
(-0.0011309 -0.0079832 -3.47228e-44)
(-0.00112989 -0.00797601 -3.4731e-44)
(-0.00112885 -0.00796868 -6.98571e-44)
(-0.00112779 -0.0079612 -3.50398e-44)
(-0.00112671 -0.00795354 -3.50572e-44)
(-0.0011256 -0.00794572 -7.05503e-44)
(-0.00112448 -0.00793772 -1.00763e-46)
(-0.00112333 -0.00792952 1.01437e-46)
(-0.00112216 -0.00792112 -7.1286e-44)
(-0.00112096 -0.00791251 -3.58715e-44)
(-0.00111972 -0.00790369 -3.58966e-44)
(-0.00111844 -0.00789465 -3.60295e-44)
(-0.00111713 -0.00788538 0)
(-0.00111578 -0.00787585 -3.63087e-44)
(-0.00111439 -0.00786604 -1.08161e-46)
(-0.00111298 -0.00785591 1.08386e-46)
(-0.00111153 -0.00784545 -3.67293e-44)
(-0.00111005 -0.00783465 -1.10129e-46)
(-0.00110852 -0.00782353 0)
(-0.00110694 -0.00781211 -3.71155e-44)
(-0.00110531 -0.00780043 -3.73679e-44)
(-0.00110363 -0.00778852 -3.73924e-44)
(-0.00110189 -0.00777637 -3.75479e-44)
(-0.00110012 -0.00776394 3.75874e-44)
(-0.00109831 -0.00775118 7.57675e-44)
(-0.00109646 -0.00773799 7.61024e-44)
(-0.00109459 -0.00772433 3.82093e-44)
(-0.00109266 -0.00771016 -3.8355e-44)
(-0.00109068 -0.00769548 -3.84901e-44)
(-0.00108862 -0.00768034 0)
(-0.00108647 -0.00766478 0)
(-0.00108423 -0.00764884 0)
(-0.00108191 -0.00763253 1.4858e-46)
(-0.00107954 -0.00761581 0)
(-0.00107712 -0.0075986 -3.95444e-44)
(-0.00107467 -0.00758083 -3.95555e-44)
(-0.00107216 -0.00756246 3.97066e-44)
(-0.00106957 -0.00754345 3.96925e-44)
(-0.00106688 -0.00752378 0)
(-0.00106406 -0.00750345 0)
(-0.00106113 -0.00748242 -4.02775e-44)
(-0.00105812 -0.00746065 -4.0419e-44)
(-0.00105503 -0.00743809 0)
(-0.00105185 -0.00741469 0)
(-0.00104857 -0.00739042 -4.07858e-44)
(-0.00104514 -0.00736526 -4.10826e-44)
(-0.00104155 -0.00733921 -4.10194e-44)
(-0.00103781 -0.00731221 -4.11529e-44)
(-0.00103394 -0.00728419 0)
(-0.00102995 -0.00725502 0)
(-0.00102584 -0.00722456 0)
(-0.00102158 -0.00719268 0)
(-0.00101711 -0.00715926 -4.18559e-44)
(-0.0010124 -0.00712416 -4.19978e-44)
(-0.00100743 -0.00708722 0)
(-0.00100219 -0.00704822 0)
(-0.000996696 -0.00700689 -4.24768e-44)
(-0.000990914 -0.00696287 -4.26393e-44)
(-0.00098479 -0.00691576 2.98482e-46)
(-0.000978245 -0.0068651 1.70298e-52)
(-0.000971203 -0.00681035 0)
(-0.00096359 -0.00675083 0)
(-0.000955339 -0.00668571 -4.34347e-44)
(-0.000946372 -0.00661389 -4.40197e-44)
(-0.000936571 -0.00653399 0)
(-0.000925754 -0.00644424 0)
(-0.000913659 -0.00634232 -4.40268e-44)
(-0.000899968 -0.00622512 -4.48403e-44)
(-0.000884351 -0.0060883 -4.5115e-44)
(-0.000866635 -0.00592575 -4.54714e-44)
(-0.000847003 -0.0057281 -4.4822e-44)
(-0.000829011 -0.00547193 -4.7143e-44)
(-0.000835125 -0.00507589 -4.80029e-44)
(-0.000899168 -0.00434548 -4.38504e-44)
(-0.000986547 -0.00302969 -3.57923e-44)
(-0.000989503 -0.000991576 -1.46323e-44)
(-0.000858431 0.00171538 0)
(-0.000373426 0.00478114 -1.56133e-46)
(-0.000631735 0.00876744 -2.16301e-44)
(0.000975084 0.0124539 -1.41087e-44)
(-0.000204181 0.0172124 0)
(0.00318095 0.0205597 1.6316e-43)
(-0.000293319 0.025747 4.73557e-51)
(0.00754646 0.026333 -5.14338e-43)
(-0.00277227 0.0318843 -5.4999e-43)
(0.0150293 0.0267116 0)
(-0.00830073 0.0326176 2.88153e-43)
(0.0220498 0.0226563 -3.60848e-43)
(-0.0121301 0.0262149 4.77476e-43)
(0.0197666 0.0196638 -4.69408e-43)
(-0.0188711 0.0303801 2.07117e-43)
(0.0220857 0.0284378 -1.45318e-43)
(-0.0124366 0.0315178 8.03737e-43)
(0.0194001 0.0258106 5.23272e-43)
(0.0072168 0.00218245 4.94243e-44)
(0.00459739 -0.0138529 -4.6879e-43)
(-0.00527772 -0.0179911 1.16628e-43)
(0.00101176 -0.0210875 -9.15394e-44)
(-0.0056805 -0.0226857 -4.53372e-43)
(-0.00143767 -0.0234276 -3.38619e-43)
(-0.00689184 -0.0205701 3.92369e-43)
(-0.00248224 -0.0158891 2.30509e-43)
(-0.00705504 -0.00716691 -2.2903e-43)
(-0.000629823 0.000916976 -6.42818e-44)
(-0.00481254 0.0109243 -2.21329e-43)
(0.00293168 0.0180542 -2.05293e-43)
(-0.00134406 0.0249109 -2.82587e-43)
(0.00657945 0.0268337 -6.16149e-43)
(0.000616541 0.0286743 -1.05571e-43)
(0.00863035 0.0254565 -2.32038e-43)
(0.00127218 0.0221265 -5.12583e-43)
(0.0096265 0.0130653 1.81913e-43)
(-0.000973431 0.00669614 -1.1543e-43)
(0.00807925 -0.00320689 -1.11315e-43)
(-0.00452126 -0.00872663 2.78396e-43)
(0.00569355 -0.0166899 1.77168e-43)
(-0.00668693 -0.0212405 1.43211e-43)
(0.00303399 -0.026831 6.50837e-43)
(-0.00809805 -0.0289064 -2.63243e-43)
(0.000575673 -0.0309754 -7.84725e-43)
(-0.00879025 -0.0295411 1.43708e-51)
(-0.000923097 -0.027725 8.69994e-43)
(-0.00818418 -0.0230996 4.69565e-43)
(-0.000946504 -0.0187091 4.03242e-43)
(-0.00628109 -0.0124708 6.5241e-43)
(-0.000753355 -0.0058634 -1.05887e-51)
(-0.00400183 0.00254852 -1.33395e-43)
(0.000101081 0.0122358 1.49797e-43)
(-0.00162399 0.0241915 6.70261e-44)
(0.00258031 0.0371538 1.10894e-43)
(0.00143298 0.05303 -6.1895e-52)
(0.00500451 0.0714042 -6.25254e-43)
(0.00849685 0.0905043 -4.65596e-43)
(0.00374508 0.119121 -8.17091e-43)
(0.0211807 0.142463 -1.70117e-42)
(0.0153392 0.175104 3.31905e-51)
(-0.00932879 0.256648 1.90966e-42)
(0.113407 0.252763 2.12996e-42)
(0.00221835 0.395073 -8.1553e-43)
(0.183717 0.362609 5.55267e-43)
(0.160216 0.485671 7.40258e-43)
(0.131227 0.51124 -4.71864e-42)
(0.149109 0.485232 -5.98427e-42)
(0.100695 0.380678 -1.70075e-42)
(0.0737986 0.278288 -7.89999e-43)
(0.0506098 0.201472 -8.68392e-43)
(0.035417 0.149708 -2.20684e-43)
(0.0247358 0.115393 -9.03394e-44)
(0.0180802 0.0927012 -7.63672e-44)
(0.014404 0.0768051 -1.26882e-44)
(0.0118205 0.0648572 -9.45631e-45)
(0.00968805 0.0558277 0)
(0.00825923 0.0488932 0)
(0.00735416 0.0430422 1.40251e-52)
(0.00668628 0.0375805 0)
(0.00563109 0.0326771 0)
(0.0050932 0.0281298 0)
(0.0043637 0.0237645 0)
(0.00374828 0.0195545 0)
(0.00321676 0.0153207 -7.84311e-45)
(0.00260013 0.0110541 0)
(0.00193975 0.00685746 0)
(0.00133456 0.00271286 0)
(0.000783498 -0.00152399 0)
(0.000242253 -0.00599181 0)
(-0.000376251 -0.0106673 -9.28757e-45)
(-0.00114622 -0.0153784 1.36139e-43)
(-0.001751 -0.0202775 1.53194e-43)
(-0.00220052 -0.0257441 -8.79811e-45)
(-0.00318563 -0.0314317 -1.41683e-44)
(-0.00381962 -0.0372812 1.6706e-43)
(-0.00451089 -0.0434256 1.89575e-43)
(-0.00539117 -0.0495022 0)
(-0.00640163 -0.0548039 -1.32991e-45)
(-0.00751296 -0.058305 0)
(-0.00884545 -0.058374 -1.20293e-43)
(-0.0106324 -0.0524807 -2.35218e-43)
(-0.0128878 -0.0370434 -9.8175e-44)
(-0.0152416 -0.00545236 1.09364e-44)
(-0.0207172 0.0614579 3.76183e-45)
(-0.039316 0.177816 4.60878e-43)
(0.000959717 -0.013279 9.76282e-45)
(0.00109471 -0.0163869 0)
(0.00106177 -0.015242 4.65505e-46)
(0.000936536 -0.0104898 0)
(0.000490564 -0.00292493 0)
(0.000259181 0.00661841 0)
(1.18325e-05 0.0176451 0)
(-0.000164989 0.0299274 0)
(-0.000284326 0.0430503 0)
(-0.000359258 0.0566066 0)
(-0.000404063 0.0702506 0)
(-0.000430489 0.0837193 -6.0656e-47)
(-0.000449101 0.0968356 1.69087e-49)
(-0.000467112 0.109498 8.28812e-51)
(-0.000487326 0.121659 -7.77375e-50)
(-0.000509098 0.133308 6.13259e-51)
(-0.000530238 0.144449 0)
(-0.000548582 0.155099 0)
(-0.000562772 0.165277 -8.79121e-51)
(-0.000572394 0.175005 -4.96528e-51)
(-0.000577706 0.184307 -5.7779e-50)
(-0.00057933 0.193212 3.16977e-50)
(-0.000577978 0.201744 0)
(-0.000574254 0.209932 -7.97904e-51)
(-0.000568636 0.217802 0)
(-0.000561466 0.225376 1.92319e-52)
(-0.000552971 0.232678 1.94269e-52)
(-0.000543332 0.239726 0)
(-0.000532685 0.246536 -2.46258e-53)
(-0.000521155 0.253123 -2.4724e-53)
(-0.000508857 0.259496 0)
(-0.000495882 0.265664 0)
(-0.000482326 0.271634 0)
(-0.000468264 0.277409 0)
(-0.000453753 0.282992 0)
(-0.000438844 0.288385 0)
(-0.000423562 0.293586 0)
(-0.000407933 0.298594 0)
(-0.000391968 0.303408 0)
(-0.000375681 0.308023 0)
(-0.000359071 0.312438 0)
(-0.000342134 0.316648 0)
(-0.00032488 0.32065 0)
(-0.000307308 0.324439 0)
(-0.00028942 0.328012 0)
(-0.000271223 0.331365 0)
(-0.000252719 0.334494 0)
(-0.000233929 0.337397 0)
(-0.000214862 0.340069 0)
(-0.000195525 0.342508 0)
(-0.000175948 0.344712 0)
(-0.000156147 0.346677 0)
(-0.000136144 0.348402 0)
(-0.000115963 0.349885 0)
(-9.56331e-05 0.351124 0)
(-7.51803e-05 0.352117 0)
(-5.46294e-05 0.352865 0)
(-3.40101e-05 0.353366 0)
(-1.3354e-05 0.35362 0)
(7.31521e-06 0.353626 0)
(2.79718e-05 0.353384 0)
(4.85877e-05 0.352894 0)
(6.91424e-05 0.352158 0)
(8.96114e-05 0.351175 0)
(0.000109983 0.349947 0)
(0.000130242 0.348476 0)
(0.000150373 0.346761 0)
(0.000170378 0.344806 0)
(0.000190253 0.342612 0)
(0.000210001 0.340182 0)
(0.000229631 0.337518 0)
(0.000249148 0.334623 0)
(0.000268565 0.3315 0)
(0.000287892 0.328152 0)
(0.000307135 0.324582 0)
(0.000326285 0.320794 0)
(0.000345335 0.316791 0)
(0.000364248 0.312577 0)
(0.000382961 0.308155 0)
(0.000401406 0.303528 0)
(0.000419462 0.2987 0)
(0.000436976 0.293675 0)
(0.00045377 0.288453 0)
(0.000469635 0.283039 0)
(0.00048434 0.277432 0)
(0.000497661 0.271633 0)
(0.000509402 0.265643 0)
(0.000519424 0.259458 0)
(0.000527679 0.253075 0)
(0.000534255 0.246488 0)
(0.000539373 0.239685 0)
(0.00054338 0.232655 0)
(0.000546717 0.22538 0)
(0.00054982 0.217839 0)
(0.000552992 0.210006 0)
(0.000556266 0.201852 0)
(0.000559277 0.193345 0)
(0.000561193 0.184454 0)
(0.000560749 0.175145 0)
(0.000556437 0.165389 0)
(0.000546796 0.155161 7.71015e-53)
(0.000530834 0.144441 6.34343e-53)
(0.000508479 0.133214 6.89942e-52)
(0.00048088 0.121474 2.57583e-52)
(0.000450289 0.109226 -2.11106e-51)
(0.000419134 0.0964872 3.83006e-48)
(0.000388249 0.083304 0)
(0.000354773 0.0697658 5.83648e-47)
(0.000311413 0.056032 -1.15266e-46)
(0.000246743 0.0423585 3.4503e-47)
(0.000142368 0.0291087 4.58567e-47)
(-2.22368e-05 0.0167399 -1.68776e-45)
(-0.000277054 0.00575333 2.43836e-46)
(-0.000510805 -0.00350928 0)
(-0.000946373 -0.0107709 9.25166e-46)
(-0.00104498 -0.0153789 0)
(-0.00108708 -0.0164841 0)
(-0.00096063 -0.0133507 0)
(-0.152546 0.0556352 0)
(-0.167265 0.0199048 -1.45818e-44)
(-0.182044 0.0218768 2.06667e-44)
(-0.195054 0.0487333 1.41174e-45)
(-0.202235 0.0742969 0)
(-0.19804 0.108927 5.91861e-45)
(-0.185842 0.160076 -1.2782e-44)
(-0.168598 0.228282 0)
(-0.14845 0.315818 1.38988e-44)
(-0.131558 0.422897 1.1981e-44)
(-0.131288 0.543042 0)
(-0.158556 0.640735 -1.08747e-45)
(-0.185314 0.648604 5.35586e-45)
(-0.176258 0.615926 -1.89647e-45)
(-0.139293 0.591605 -3.96819e-47)
(-0.0910199 0.576795 -2.33334e-45)
(-0.035469 0.578855 1.50949e-46)
(0.0244693 0.605071 0)
(0.0821223 0.657973 2.88173e-46)
(0.133609 0.736604 -7.06037e-47)
(0.170685 0.850936 -2.42943e-47)
(0.169947 0.985697 -3.65962e-48)
(0.141165 1.06377 -1.71618e-47)
(0.113241 1.10018 8.83282e-47)
(0.0960085 1.10873 1.84474e-46)
(0.0904859 1.11105 8.05373e-45)
(0.0908185 1.11308 0)
(0.0935356 1.11932 0)
(0.0948033 1.1255 4.4282e-45)
(0.0940134 1.12415 1.42475e-44)
(0.0899523 1.11174 -1.32142e-44)
(0.0860317 1.07718 -1.63269e-44)
(0.0821313 1.03422 0)
(0.0757831 0.966907 -5.41722e-44)
(0.0699575 0.873133 -7.05558e-44)
(0.0601213 0.77024 0)
(0.0281499 0.658013 2.32165e-44)
(-0.0291596 0.464498 -8.42225e-44)
(-0.00120737 -0.013854 -4.43556e-45)
(-0.00150475 -0.0140935 -1.92492e-44)
(-0.00176464 -0.0143137 -1.29705e-44)
(-0.00192557 -0.0144523 1.13041e-45)
(-0.00193803 -0.0146364 2.70785e-44)
(-0.00191809 -0.0148685 -3.2106e-46)
(-0.00191692 -0.0151209 2.00167e-46)
(-0.00195139 -0.0153624 2.99018e-44)
(-0.00201268 -0.0155671 3.08108e-44)
(-0.00208402 -0.0157166 3.1427e-44)
(-0.0021502 -0.0158071 3.19155e-44)
(-0.00219985 -0.0158455 -2.1925e-48)
(-0.00222736 -0.0158496 -1.41791e-46)
(-0.00223516 -0.0158402 3.2465e-44)
(-0.00223062 -0.0158337 0)
(-0.00222194 -0.0158383 -3.32057e-44)
(-0.00221513 -0.015855 -3.33687e-44)
(-0.00221314 -0.0158799 3.3599e-44)
(-0.00221629 -0.0159075 3.40015e-44)
(-0.00222322 -0.0159323 0)
(-0.00223194 -0.0159507 6.88115e-47)
(-0.00224051 -0.015961 1.48558e-46)
(-0.00224745 -0.0159634 -7.93147e-47)
(-0.00225197 -0.0159594 3.53034e-44)
(-0.0022539 -0.0159514 3.5475e-44)
(-0.00225356 -0.015942 7.34554e-47)
(-0.00225159 -0.0159335 6.34803e-47)
(-0.0022487 -0.0159277 5.09772e-47)
(-0.00224562 -0.0159257 0)
(-0.0022429 -0.0159279 -2.50268e-47)
(-0.00224096 -0.0159342 0)
(-0.00224001 -0.0159442 -1.62478e-47)
(-0.00224008 -0.0159571 -5.6327e-48)
(-0.00224111 -0.0159718 3.60709e-44)
(-0.00224294 -0.0159875 -9.54095e-52)
(-0.00224535 -0.0160033 -3.61208e-44)
(-0.00224815 -0.0160185 -3.61629e-44)
(-0.00225113 -0.0160324 -3.61745e-44)
(-0.00225414 -0.0160446 0)
(-0.00225704 -0.0160548 0)
(-0.00225974 -0.0160627 0)
(-0.00226219 -0.0160684 -3.65976e-44)
(-0.00226436 -0.0160717 -3.675e-44)
(-0.00226623 -0.0160728 1.12524e-46)
(-0.0022678 -0.0160717 -3.70647e-44)
(-0.00226908 -0.0160685 -3.72095e-44)
(-0.00227005 -0.0160633 1.16054e-46)
(-0.00227071 -0.0160564 -3.74368e-44)
(-0.00227106 -0.0160477 -3.75106e-44)
(-0.00227109 -0.0160375 0)
(-0.00227077 -0.0160258 -3.75786e-44)
(-0.0022701 -0.0160128 1.30642e-46)
(-0.00226906 -0.0159986 3.75779e-44)
(-0.00226767 -0.0159831 -3.75758e-44)
(-0.00226594 -0.0159666 -3.74241e-44)
(-0.00226388 -0.015949 -3.76267e-44)
(-0.00226157 -0.0159304 -7.54e-44)
(-0.00225903 -0.0159108 -3.76127e-44)
(-0.00225635 -0.0158902 -3.79677e-44)
(-0.00225358 -0.0158686 -3.81573e-44)
(-0.00225079 -0.0158461 0)
(-0.00224801 -0.0158227 -3.85978e-44)
(-0.00224525 -0.0157984 -3.86206e-44)
(-0.00224248 -0.0157733 0)
(-0.00223967 -0.0157473 -3.91969e-44)
(-0.00223674 -0.0157207 -3.91568e-44)
(-0.00223362 -0.0156934 0)
(-0.00223026 -0.0156654 0)
(-0.00222661 -0.0156368 0)
(-0.00222269 -0.0156075 -3.97392e-44)
(-0.00221852 -0.0155776 -7.97314e-44)
(-0.00221419 -0.0155469 -4.0024e-44)
(-0.00220979 -0.0155156 -4.02132e-44)
(-0.00220539 -0.0154836 -4.04245e-44)
(-0.00220106 -0.0154509 2.29641e-46)
(-0.00219683 -0.0154176 -4.08503e-44)
(-0.00219267 -0.0153837 -8.18496e-44)
(-0.00218853 -0.0153494 -4.11717e-44)
(-0.00218432 -0.0153144 -4.12707e-44)
(-0.00217997 -0.015279 2.07604e-46)
(-0.00217542 -0.0152431 4.13673e-44)
(-0.00217062 -0.0152066 -4.13911e-44)
(-0.00216559 -0.0151696 -4.11783e-44)
(-0.00216037 -0.015132 0)
(-0.002155 -0.0150938 0)
(-0.00214956 -0.015055 0)
(-0.00214409 -0.0150156 -4.17049e-44)
(-0.00213863 -0.0149757 -4.18105e-44)
(-0.00213318 -0.0149353 0)
(-0.00212774 -0.0148944 -4.20109e-44)
(-0.00212228 -0.0148529 -4.18592e-44)
(-0.00211678 -0.0148108 0)
(-0.00211119 -0.0147682 0)
(-0.00210549 -0.014725 0)
(-0.00209967 -0.0146811 0)
(-0.00209371 -0.0146367 0)
(-0.00208761 -0.0145916 0)
(-0.00208139 -0.0145458 0)
(-0.00207504 -0.0144994 -4.22563e-44)
(-0.0020686 -0.0144524 -4.26094e-44)
(-0.00206208 -0.0144046 0)
(-0.00205549 -0.0143562 -4.2796e-44)
(-0.00204883 -0.0143071 -4.2903e-44)
(-0.0020421 -0.0142573 0)
(-0.00203529 -0.0142067 4.34398e-44)
(-0.00202838 -0.0141554 4.32729e-44)
(-0.00202137 -0.0141033 -4.34116e-44)
(-0.00201426 -0.0140504 3.16902e-46)
(-0.00200705 -0.0139967 4.37057e-44)
(-0.00199975 -0.0139422 -4.38572e-44)
(-0.00199237 -0.0138869 -4.36863e-44)
(-0.00198489 -0.0138308 0)
(-0.0019773 -0.0137738 0)
(-0.00196959 -0.0137159 0)
(-0.00196176 -0.013657 -4.46401e-44)
(-0.0019538 -0.0135972 -4.48114e-44)
(-0.00194573 -0.0135363 0)
(-0.00193755 -0.0134743 -4.51656e-44)
(-0.00192926 -0.0134114 -4.50037e-44)
(-0.00192087 -0.0133474 0)
(-0.00191234 -0.0132824 0)
(-0.00190365 -0.0132164 -4.5824e-44)