/*--------------------------------*- C++ -*----------------------------------*\
| =========                 |                                                 |
| \\      /  F ield         | OpenFOAM: The Open Source CFD Toolbox           |
|  \\    /   O peration     | Version:  2.2.1                                 |
|   \\  /    A nd           | Web:      www.OpenFOAM.org                      |
|    \\/     M anipulation  |                                                 |
\*---------------------------------------------------------------------------*/
FoamFile
{
    version     2.0;
    format      ascii;
    class       volScalarField;
    location    "1e-05";
    object      alpha1;
}
// * * * * * * * * * * * * * * * * * * * * * * * * * * * * * * * * * * * * * //

dimensions      [0 0 0 0 0 0 0];

internalField   nonuniform List<scalar> 
22464
(
1.74751e-47
1.67328e-47
1.4396e-47
3.05878e-24
3.37753e-19
1.5101e-14
3.40138e-10
1.13007e-06
0.000302052
0.0115914
0.135647
0.639975
0.963989
0.995082
0.998389
0.99916
0.999457
0.999592
0.999652
0.99968
0.9997
0.999716
0.999726
0.999729
0.999729
0.999731
0.999762
0.9998
0.999815
0.999799
0.999786
0.999786
0.999817
0.999955
0.999972
0.999811
0.999531
0.999501
0.999501
0.999501
0.999619
0.999623
0.99954
0.99954
0.999807
0.999973
0.999992
0.999997
0.999979
0.999777
0.997736
0.988183
0.980002
0.984121
0.998521
0.999899
0.999973
0.999993
0.999999
1
1
1
1
1
1
1
1
1
1
1
1
1
0.999985
0.999035
0.99163
0.98549
0.989092
0.999114
0.995176
0.863989
0.325791
0.0460196
0.0135595
0.00420513
0.0035868
0.00268026
0.00228713
0.00214303
0.00202729
0.00203106
0.00216669
0.00247755
0.00276849
0.00292578
0.00296072
0.00276657
0.0023837
0.00193349
0.00150055
0.00114491
0.000865779
0.000648306
0.000475118
0.000335617
0.000223492
0.000135426
7.00683e-05
2.73285e-05
6.27006e-06
4.64877e-07
1.97568e-09
1.50004e-13
1.1531e-18
3.97106e-24
2.88223e-28
1.23189e-33
1.90403e-39
6.47459e-46
1.28733e-53
8.33596e-92
1.28254e-78
5.22567e-91
9.554e-116
9.64026e-116
2.02288e-120
1.77605e-128
1.20819e-136
1.18073e-160
-5.02611e-142
-1.44003e-144
-3.29653e-147
-6.01427e-150
-8.73363e-153
-9.9925e-156
-8.97191e-159
-6.24011e-162
-3.29553e-165
-1.31493e-168
-3.91918e-172
-8.64766e-176
-1.35686e-179
-1.37787e-183
-7.82815e-188
-1.6425e-192
-5.07317e-198
-2.28009e-223
-3.14447e-232
0
0
0
0
0
0
0
0
0
0
0
0
0
0
0
0
0
0
0
0
0
0
0
0
0
0
0
0
0
0
0
0
0
0
0
0
0
0
0
0
0
0
0
0
0
0
0
0
0
0
0
0
0
0
0
0
0
0
0
0
0
0
0
0
0
0
0
0
0
0
0
0
0
0
0
0
0
0
0
0
0
0
0
0
0
0
0
0
0
0
0
0
0
0
0
0
0
0
0
0
0
0
0
0
0
0
0
0
0
0
0
0
0
0
0
0
0
0
0
0
0
0
0
0
0
0
0
0
0
0
0
0
0
0
0
0
0
0
0
0
0
0
0
0
0
0
0
0
0
0
0
0
0
0
0
0
0
0
0
0
0
0
0
0
0
0
0
0
0
0
0
0
0
0
0
0
0
0
0
0
0
0
0
0
0
0
0
0
0
0
0
0
0
0
0
0
0
0
0
0
0
0
0
0
0
0
0
0
0
0
0
0
0
0
0
0
0
0
0
0
0
0
0
0
0
0
0
0
0
0
0
0
0
0
0
0
0
0
0
0
0
0
0
0
0
0
0
0
0
0
0
0
0
0
0
0
0
0
0
0
0
0
0
0
0
0
0
0
0
0
0
0
0
0
0
0
0
-1.47142e-213
-2.21918e-195
-1.24685e-189
-6.96272e-185
-1.37922e-180
-1.46737e-176
-9.97966e-173
-4.85597e-169
-1.76726e-165
-4.88024e-162
-1.0223e-158
-1.63966e-155
-2.06282e-152
-2.0498e-149
-1.62178e-146
-1.03329e-143
-5.33086e-141
-2.23483e-138
-7.44987e-136
4.12473e-152
1.43418e-128
1.56303e-120
4.12816e-115
4.13941e-115
2.75126e-90
4.59189e-79
6.72282e-88
9.34215e-54
5.16145e-46
1.60669e-39
1.06823e-33
2.54286e-28
3.6184e-24
1.08029e-18
1.36653e-13
1.85097e-09
4.50291e-07
6.17568e-06
2.70713e-05
6.96007e-05
0.000134729
0.000222537
0.000334348
0.000473429
0.000645955
0.000862566
0.00113972
0.00149362
0.00192314
0.00237281
0.0027574
0.00295403
0.00291802
0.0027634
0.00247758
0.00216835
0.00203138
0.00202697
0.00214231
0.00228644
0.00267682
0.00358422
0.00419746
0.0134749
0.0458475
0.323907
0.862928
0.995104
0.999117
0.989119
0.985506
0.99164
0.999037
0.999986
1
1
1
1
1
1
1
1
1
1
1
1
1
0.999999
0.999993
0.999973
0.999899
0.99852
0.9841
0.979976
0.988225
0.99775
0.999778
0.999979
0.999997
0.999992
0.999973
0.999808
0.999538
0.999538
0.999617
0.999622
0.999503
0.999503
0.999503
0.999528
0.999808
0.999972
0.999955
0.999816
0.999785
0.999785
0.999798
0.999815
0.999801
0.999764
0.999731
0.999729
0.999729
0.999727
0.999716
0.999698
0.999678
0.99965
0.999592
0.999464
0.999181
0.99846
0.995507
0.969564
0.683463
0.159418
0.0142596
0.000386793
1.53663e-06
6.1817e-10
6.35829e-14
3.53364e-18
6.23486e-23
8.81072e-50
7.70689e-50
3.18628e-49
0
0
0
0
0
0
0
0
0
0
0
0
0
0
0
0
0
0
0
0
0
0
0
0
0
0
0
0
0
0
0
0
0
0
0
0
0
0
0
0
0
0
0
0
0
0
0
0
0
0
0
0
0
0
0
0
0
0
0
0
0
0
0
0
0
0
0
0
0
0
0
0
0
0
0
0
0
0
0
0
0
0
0
0
0
0
0
0
0
0
0
0
0
0
0
0
0
0
0
0
0
0
0
0
0
0
0
0
0
0
0
0
0
0
0
0
0
0
4.40675e-50
7.81472e-33
1.24107e-51
3.19961e-13
6.1963e-12
1.98016e-11
6.24109e-12
2.04906e-13
9.44238e-14
6.53991e-13
1.20189e-11
2.16909e-10
5.13261e-10
3.44862e-10
5.95445e-11
1.27243e-12
1.86728e-14
5.37061e-14
1.14605e-14
1.34782e-13
7.26028e-13
8.85481e-13
1.40434e-12
4.29215e-11
2.68955e-10
4.00025e-10
1.721e-10
1.36564e-11
1.26308e-12
8.00124e-14
4.12704e-13
8.94078e-12
2.42262e-11
5.90728e-12
2.62871e-13
-1.40897e-51
8.33213e-33
9.25585e-53
0
0
0
0
0
0
0
0
0
0
0
0
0
0
0
0
0
0
0
0
0
0
0
0
0
0
0
0
0
0
0
0
0
0
0
0
0
0
0
0
0
0
0
0
0
0
0
0
0
0
0
0
0
0
0
0
0
0
0
0
0
0
0
0
0
0
0
0
0
0
0
0
0
0
0
0
0
0
0
0
0
0
0
0
0
0
0
0
0
0
0
0
0
0
0
0
0
0
0
0
0
0
0
0
0
0
0
0
0
0
0
0
0
0
0
0
0
0
0
0
0
0
0
0
0
0
0
0
0
0
0
0
0
0
0
0
0
0
-1.08265e-216
-2.62069e-193
-2.06164e-187
-1.16667e-182
-2.20944e-178
-2.14238e-174
-1.30854e-170
-5.72927e-167
-1.90892e-163
-4.93175e-160
-9.83858e-157
-1.51392e-153
-1.82447e-150
-1.72385e-147
-1.28174e-144
-7.55813e-142
-3.54387e-139
-1.32371e-136
-3.68798e-134
7.82147e-131
1.07671e-122
1.0401e-114
4.13145e-115
1.13624e-96
2.24298e-88
1.27253e-75
1.62036e-88
1.06981e-50
2.07166e-43
2.85474e-37
8.75666e-32
9.58023e-27
1.98291e-23
1.72632e-21
3.33509e-19
6.70705e-15
5.23083e-12
6.64435e-11
3.88103e-10
1.35814e-09
3.35938e-09
7.29443e-09
1.7221e-08
4.77196e-08
1.42179e-07
4.09107e-07
1.08672e-06
2.56859e-06
6.63078e-06
1.79549e-05
1.65122e-05
1.90984e-05
2.6206e-05
3.82209e-05
6.67414e-05
0.000142837
0.000228261
0.00022236
0.000221446
0.000213702
0.000260122
0.00039949
0.000195392
0.000571054
0.000973981
0.00894113
0.224172
0.805956
0.990471
0.995917
0.993686
0.98925
0.989235
0.995021
0.999417
0.999988
1
1
1
1
1
1
1
1
1
1
1
1
1
1
1
0.999986
0.998158
0.987794
0.987778
0.993116
0.998328
0.99978
0.999986
0.999999
0.999999
0.999999
0.999997
0.999994
0.999988
0.999983
0.999981
0.999981
0.999982
0.999983
0.999985
0.999987
0.999991
0.999994
0.999995
0.999995
0.999996
0.999996
0.999996
0.999996
0.999995
0.999995
0.999994
0.999994
0.999993
0.999992
0.99999
0.999988
0.999981
0.999957
0.999818
0.998789
0.987816
0.839654
0.270686
0.0162778
0.000234646
3.05719e-06
9.00884e-09
6.15e-12
1.96108e-15
3.62516e-19
2.37968e-23
4.25705e-50
4.33134e-50
4.77794e-34
8.36483e-29
2.27026e-24
3.44604e-20
3.53075e-16
2.53607e-12
6.20431e-09
2.29666e-06
0.000173454
0.0118488
0.232537
0.808233
0.985529
0.998611
0.999797
0.999954
0.999981
0.999988
0.999991
0.999992
0.999993
0.999994
0.999994
0.999995
0.999995
0.999996
0.999996
0.999996
0.999996
0.999995
0.999995
0.999994
0.999991
0.999987
0.999985
0.999984
0.999982
0.999981
0.999981
0.999983
0.999989
0.999994
0.999997
0.999999
0.999999
0.999999
0.999985
0.999778
0.998309
0.993039
0.987832
0.987857
0.998183
0.999986
1
1
1
1
1
1
1
1
1
1
1
1
1
1
1
0.999988
0.999413
0.994998
0.989211
0.989222
0.993675
0.995935
0.990561
0.807165
0.225911
0.00906431
0.000970829
0.000574856
0.000195072
0.000398249
0.000260826
0.00021338
0.000220447
0.000220196
0.000225547
0.000140409
6.31847e-05
3.39044e-05
2.36998e-05
1.89493e-05
1.74434e-05
1.83489e-05
6.80267e-06
2.63165e-06
1.11546e-06
4.1971e-07
1.45552e-07
4.8443e-08
1.72069e-08
7.18005e-09
3.29919e-09
1.34963e-09
3.93411e-10
6.895e-11
5.57176e-12
6.92795e-15
3.46768e-19
1.83341e-21
2.17616e-23
1.10174e-26
1.02714e-31
3.44618e-37
2.63722e-43
1.48773e-50
2.69734e-92
4.923e-75
4.80389e-89
1.79274e-96
9.6478e-116
1.34161e-114
1.34482e-122
1.0419e-130
2.83706e-138
-2.98896e-140
-9.65452e-143
-2.43421e-145
-4.80216e-148
-7.42373e-151
-8.93257e-154
-8.36383e-157
-6.04569e-160
-3.33157e-163
-1.40522e-166
-4.51284e-170
-1.09276e-173
-1.89729e-177
-2.1115e-181
-1.27097e-185
-2.65161e-190
-6.49829e-196
-1.57408e-227
-1.96377e-236
0
0
0
0
0
0
0
0
0
0
0
0
0
0
0
0
0
0
0
0
0
0
0
0
0
0
0
0
0
0
0
0
0
0
0
0
0
0
0
0
0
0
0
0
0
0
0
0
0
0
0
0
0
0
0
0
0
0
0
0
0
0
0
0
0
0
0
0
0
0
0
0
0
0
0
0
0
0
0
0
0
0
0
0
0
0
0
0
0
0
0
0
0
0
0
0
0
0
0
0
0
0
0
0
0
0
0
0
0
0
0
0
0
0
0
0
0
0
0
0
0
0
0
0
0
0
0
0
0
0
0
0
0
0
0
0
0
0
0
0
0
0
0
0
0
0
0
0
0
0
0
0
0
0
0
0
0
0
0
0
0
0
0
0
0
0
0
0
0
0
0
0
0
0
0
0
0
0
0
0
0
0
0
0
0
0
0
0
0
0
0
0
0
0
0
0
0
0
0
0
0
0
0
0
0
0
0
0
0
0
0
0
0
0
0
0
0
0
0
0
0
0
0
0
0
0
0
0
0
0
0
0
0
0
0
0
0
0
0
0
0
0
0
0
0
0
0
0
0
0
0
0
0
5.55983e-32
-1.04339e-50
5.79857e-13
9.25139e-12
4.89085e-11
3.29659e-11
3.05852e-12
1.57128e-12
6.61071e-12
9.3893e-11
9.41652e-10
1.17755e-09
5.39192e-10
7.24081e-11
1.36582e-12
5.38581e-14
1.5172e-13
2.80886e-14
2.06315e-13
1.17339e-12
1.52999e-12
2.4869e-12
6.59509e-11
4.66797e-10
9.62726e-10
7.27544e-10
7.11302e-11
4.36379e-12
1.02718e-12
5.83255e-12
4.69005e-11
5.61412e-11
9.00291e-12
5.19911e-13
3.83362e-35
6.53277e-33
0
0
0
0
0
0
0
0
0
0
0
0
0
0
0
0
0
0
0
0
0
0
0
0
0
0
0
0
0
0
0
0
0
0
0
0
0
0
0
0
0
0
0
0
0
0
0
0
0
0
0
0
0
0
0
0
0
0
0
0
0
0
0
0
0
0
0
0
0
0
0
0
0
0
0
0
0
0
0
0
0
0
0
0
0
0
0
0
0
0
0
0
0
0
0
0
0
0
0
0
0
0
0
0
0
0
0
0
0
0
0
0
0
0
0
0
2.976e-43
2.97572e-43
3.65732e-36
3.79897e-18
1.55218e-14
5.65507e-11
1.04119e-07
3.94296e-05
0.00285181
0.0597928
0.436514
0.928138
0.995808
0.999632
0.999963
0.999996
0.999999
1
1
1
1
1
1
1
1
1
1
1
1
1
1
1
1
1
1
1
1
1
1
1
1
1
1
1
0.999991
0.999921
0.999643
0.999157
0.998778
0.998449
0.998456
0.999974
1
1
1
1
1
1
1
1
1
1
1
1
1
1
1
0.999981
0.999624
0.997307
0.994158
0.994425
0.997797
0.997064
0.980042
0.744214
0.168786
0.00702516
0.000255559
7.86216e-06
3.71519e-07
1.87608e-08
2.33717e-09
5.22117e-10
1.91953e-10
1.15379e-10
8.44022e-11
6.57932e-11
5.08883e-11
3.80531e-11
2.898e-11
2.24561e-11
1.68482e-11
1.13342e-11
6.67576e-12
3.4626e-12
1.69926e-12
8.01661e-13
3.88254e-13
1.9448e-13
9.6654e-14
4.46566e-14
1.78235e-14
5.78095e-15
1.45541e-15
2.71746e-16
3.53552e-17
3.24554e-18
2.95614e-19
2.82434e-20
1.39685e-21
1.55241e-23
9.82574e-27
1.51488e-31
8.41371e-37
1.08937e-42
1.20681e-49
6.6391e-73
7.08549e-74
6.02131e-88
7.95805e-94
2.12303e-103
4.46321e-111
1.07667e-118
1.60229e-126
5.92005e-134
2.87488e-141
-4.65192e-145
-2.21273e-147
-1.1412e-149
-5.09062e-152
-1.66583e-154
-3.87993e-157
-6.42003e-160
-7.50712e-163
-6.10375e-166
-3.37048e-169
-1.2463e-172
-2.94216e-176
-4.01475e-180
-2.67382e-184
-5.45068e-189
-7.68772e-195
-2.62969e-231
-2.89511e-240
0
0
0
0
0
0
0
0
0
0
0
0
0
0
0
0
0
0
0
0
0
0
0
0
0
0
0
0
0
0
0
0
0
0
0
0
0
0
0
0
0
0
0
0
0
0
0
0
0
0
0
0
0
0
0
0
0
0
0
0
0
0
0
0
0
0
0
0
0
0
0
0
0
0
0
0
0
0
0
0
0
0
0
0
0
0
0
0
0
0
0
0
0
0
0
0
0
0
0
0
0
0
0
0
0
0
0
0
0
0
0
0
0
0
0
0
0
0
0
0
0
0
0
0
0
0
0
0
0
0
0
0
0
0
0
0
0
0
0
0
0
0
0
0
0
0
0
0
0
0
0
0
0
0
0
0
0
0
0
0
0
0
0
0
0
0
0
0
0
0
0
0
0
0
0
0
0
0
0
0
0
0
0
0
0
0
0
0
0
0
0
0
0
0
0
0
0
0
0
0
0
0
0
0
0
0
0
0
0
0
0
0
0
0
0
0
0
0
0
0
0
0
0
0
0
0
0
0
0
0
0
0
0
0
0
0
0
0
0
0
0
0
0
0
0
0
0
0
0
0
0
0
0
0
0
0
0
0
0
0
0
0
0
0
0
0
0
0
0
0
0
-7.89138e-220
-2.31299e-192
-4.41713e-186
-2.6086e-181
-4.61594e-177
-3.75322e-173
-1.74576e-169
-5.16743e-166
-1.02523e-162
-1.38682e-159
-1.31542e-156
-8.94946e-154
-4.3962e-151
-1.57184e-148
-4.22904e-146
-9.63058e-144
-2.42266e-141
-2.54781e-139
4.67233e-134
1.1884e-126
8.30781e-119
3.34191e-111
2.02593e-103
6.97e-94
2.7402e-87
1.40245e-74
1.98095e-72
8.60239e-50
8.46835e-43
6.87968e-37
1.27592e-31
8.45239e-27
1.40324e-23
1.30095e-21
2.65472e-20
2.803e-19
3.13447e-18
3.49257e-17
2.72381e-16
1.47283e-15
5.89146e-15
1.82561e-14
4.58441e-14
9.90391e-14
1.9802e-13
3.91659e-13
8.00754e-13
1.68503e-12
3.41956e-12
6.58047e-12
1.11654e-11
1.66303e-11
2.22141e-11
2.87334e-11
3.77591e-11
5.05121e-11
6.53539e-11
8.38797e-11
1.1467e-10
1.90596e-10
5.17099e-10
2.31162e-09
1.85115e-08
3.66947e-07
7.77588e-06
0.000252473
0.00695875
0.167708
0.743095
0.979909
0.997066
0.997803
0.994447
0.994182
0.997319
0.999626
0.999981
1
1
1
1
1
1
1
1
1
1
1
1
1
1
1
0.999973
0.998437
0.998444
0.998781
0.99916
0.999644
0.999922
0.999991
1
1
1
1
1
1
1
1
1
1
1
1
1
1
1
1
1
1
1
1
1
1
1
1
1
1
1
0.999999
0.999996
0.999968
0.999679
0.99639
0.939923
0.47615
0.0697939
0.0034967
5.32653e-05
1.81843e-07
1.93066e-10
1.21415e-13
5.68433e-17
1.58115e-35
3.99989e-34
7.41487e-32
1.1441e-33
5.76268e-13
8.96809e-12
5.52061e-11
8.4855e-11
2.26852e-11
9.1087e-11
4.68048e-10
1.07677e-09
2.54211e-09
1.56054e-09
5.54301e-10
7.04718e-11
1.33841e-12
8.60582e-14
2.52421e-13
4.23172e-14
2.31102e-13
1.33664e-12
1.81095e-12
3.03944e-12
7.14053e-11
4.98757e-10
1.32331e-09
1.93224e-09
6.56973e-10
2.10025e-10
6.64989e-11
3.20447e-11
1.14337e-10
6.12905e-11
8.82184e-12
5.449e-13
3.57143e-17
1.20881e-15
2.37447e-15
2.16397e-15
2.57973e-15
2.45896e-13
4.79351e-10
2.94513e-07
6.6782e-05
0.0083838
0.167429
0.729439
0.984013
0.999024
0.99992
0.999993
0.999999
1
1
1
1
1
1
1
1
1
1
1
1
1
1
1
1
1
1
1
1
1
1
1
1
1
1
1
0.999998
0.999997
0.999994
0.999989
0.999982
0.999978
0.999977
1
1
1
1
1
1
1
1
1
1
1
1
1
1
0.999999
0.999986
0.999842
0.999273
0.998638
0.998656
0.998981
0.998419
0.9676
0.672652
0.125838
0.00670225
0.000183639
3.67503e-06
6.45706e-08
1.32796e-09
5.13504e-11
2.23791e-11
1.89677e-11
1.37628e-11
8.07893e-12
4.71938e-12
3.13305e-12
2.27257e-12
1.69585e-12
1.27437e-12
9.4285e-13
6.65194e-13
4.37607e-13
2.6613e-13
1.49876e-13
7.88324e-14
3.9144e-14
1.85378e-14
8.43548e-15
3.67968e-15
1.50539e-15
5.57166e-16
1.82596e-16
5.24644e-17
1.29086e-17
2.61705e-18
4.14248e-19
4.66954e-20
3.24912e-21
1.23279e-22
1.38872e-24
9.79547e-28
2.23251e-32
1.81249e-37
3.47102e-43
6.97548e-50
3.54434e-73
3.52425e-73
1.61923e-92
1.61032e-92
7.78102e-102
2.31574e-109
6.72884e-117
1.59266e-124
8.42659e-132
4.89392e-139
3.37896e-146
-1.86368e-149
-4.75904e-151
-4.73605e-153
-2.71618e-155
-1.00575e-157
-2.49479e-160
-4.1902e-163
-4.72619e-166
-3.50333e-169
-1.64832e-172
-4.69773e-176
-7.25484e-180
-4.70518e-184
-6.00837e-189
-7.25422e-198
-7.60001e-235
-7.30115e-244
0
0
0
0
0
0
0
0
0
0
0
0
0
0
0
0
0
0
0
0
0
0
0
0
0
0
0
0
0
0
0
0
0
0
0
0
0
0
0
0
0
0
0
0
0
0
0
0
0
0
0
0
0
0
0
0
0
0
0
0
0
0
0
0
0
0
0
0
0
0
0
0
0
0
0
0
0
0
0
0
0
0
0
0
0
0
0
0
0
0
0
0
0
0
0
0
0
0
0
0
0
0
0
0
0
0
0
0
0
0
0
0
0
0
0
0
0
0
0
0
0
0
0
0
0
0
0
0
0
0
0
0
0
0
0
0
0
0
0
0
0
0
0
0
0
0
0
0
0
0
0
0
0
0
0
0
0
0
0
0
0
0
0
0
0
0
0
0
0
0
0
0
0
0
0
0
0
0
0
0
0
0
0
0
0
0
0
0
0
0
0
0
0
0
0
0
0
0
0
0
0
0
0
0
0
0
0
0
0
0
0
0
0
0
0
0
0
0
0
0
0
0
0
0
0
0
0
0
0
0
0
0
0
0
0
0
0
0
0
0
0
0
0
0
0
0
0
0
0
0
0
0
0
0
0
0
0
0
0
0
0
0
0
0
0
0
0
0
0
0
0
0
0
0
0
0
0
0
0
0
0
0
0
0
0
0
0
0
0
0
0
0
0
0
0
0
0
0
0
0
0
0
0
0
0
0
0
0
0
0
0
0
0
0
0
0
0
0
0
0
0
0
0
0
0
0
0
0
0
0
0
0
0
0
0
0
0
0
0
0
0
0
0
0
0
0
0
0
0
0
0
0
0
0
0
0
0
0
0
0
0
0
0
0
0
0
0
0
0
0
0
0
0
0
0
0
0
0
0
0
0
0
0
-9.2192e-223
-2.16004e-195
-4.92268e-186
-5.34437e-181
-9.89431e-177
-7.28428e-173
-2.84607e-169
-6.71085e-166
-1.00863e-162
-9.9612e-160
-6.66808e-157
-3.06978e-154
-9.71177e-152
-2.0759e-149
-2.88142e-147
-2.41698e-145
-1.67275e-143
3.62581e-139
6.4653e-132
1.16542e-124
5.04406e-117
1.65592e-109
5.09022e-102
1.51439e-92
1.52277e-92
1.31067e-73
1.31813e-73
4.97681e-50
2.67142e-43
1.46315e-37
1.85695e-32
8.32753e-28
1.24338e-24
1.13521e-22
3.02577e-21
4.375e-20
3.89772e-19
2.47266e-18
1.22441e-17
4.99034e-17
1.73933e-16
5.31351e-16
1.43869e-15
3.52578e-15
8.09962e-15
1.78272e-14
3.76874e-14
7.59848e-14
1.44621e-13
2.5708e-13
4.23233e-13
6.44403e-13
9.14816e-13
1.23753e-12
1.64711e-12
2.20644e-12
3.03804e-12
4.56571e-12
7.82515e-12
1.33831e-11
1.85439e-11
2.19703e-11
5.05918e-11
1.30884e-09
6.36374e-08
3.62119e-06
0.000181725
0.00665116
0.125376
0.672183
0.967559
0.998423
0.998987
0.998662
0.998643
0.999276
0.999843
0.999986
0.999999
1
1
1
1
1
1
1
1
1
1
1
1
1
1
0.999977
0.999977
0.999982
0.999989
0.999994
0.999997
0.999998
1
1
1
1
1
1
1
1
1
1
1
1
1
1
1
1
1
1
1
1
1
1
1
1
1
1
1
0.999999
0.999993
0.999927
0.999114
0.985814
0.753658
0.186226
0.0104306
9.54759e-05
4.96608e-07
1.36727e-09
1.76248e-12
3.61041e-15
1.65663e-15
1.38357e-15
2.76565e-16
3.50404e-13
5.32139e-12
4.43542e-11
1.71257e-10
1.73294e-10
1.79875e-09
9.17348e-09
9.29903e-09
5.4219e-09
1.65294e-09
4.96309e-10
6.62905e-11
1.33089e-12
1.19886e-13
4.25631e-13
8.65843e-14
2.60858e-13
1.45711e-12
2.00532e-12
3.44774e-12
7.52182e-11
4.72389e-10
1.46179e-09
4.36866e-09
6.70534e-09
5.773e-09
1.55919e-09
1.80911e-10
1.96751e-10
4.68278e-11
5.57918e-12
3.74791e-13
0
1.48031e-13
5.37752e-14
3.32945e-14
3.98088e-14
2.83441e-12
8.16323e-09
7.59505e-06
0.00132596
0.0475572
0.427686
0.936115
0.997159
0.999815
0.999986
0.999999
1
1
1
1
1
1
1
1
1
1
1
1
1
1
1
1
1
1
1
1
1
1
1
1
1
1
1
1
1
1
1
1
1
1
1
1
1
1
1
1
1
1
1
1
1
1
1
1
0.999995
0.999964
0.999883
0.999827
0.999835
0.999835
0.998718
0.958478
0.623138
0.102198
0.00672969
0.000192301
3.99867e-06
5.6803e-08
6.30126e-10
1.59441e-11
1.31848e-11
1.73599e-11
1.63688e-11
8.68291e-12
3.72041e-12
1.86627e-12
1.23465e-12
9.28751e-13
7.11376e-13
5.3318e-13
3.81168e-13
2.55426e-13
1.59484e-13
9.26865e-14
5.00792e-14
2.5095e-14
1.16276e-14
4.96807e-15
1.9531e-15
7.04942e-16
2.32764e-16
6.97768e-17
1.87322e-17
4.41377e-18
8.8835e-19
1.47185e-19
1.90859e-20
1.80498e-21
1.11277e-22
3.57048e-24
3.24809e-26
1.97612e-29
6.02094e-34
6.54735e-39
1.74639e-44
5.30639e-51
1.1304e-58
8.57336e-84
8.51279e-84
5.97456e-94
3.8606e-101
6.69128e-109
1.4617e-116
5.86485e-124
3.96848e-131
2.50339e-138
2.15138e-145
-5.15576e-153
-1.49576e-152
-2.7391e-154
-2.18994e-156
-1.06522e-158
-3.36407e-161
-7.01017e-164
-9.57183e-167
-8.32523e-170
-4.40164e-173
-1.32492e-176
-1.91052e-180
-9.44778e-185
-2.44438e-190
-7.0175e-201
-3.32473e-238
-2.76415e-247
0
0
0
0
0
0
0
0
0
0
0
0
0
0
0
0
0
0
0
0
0
0
0
0
0
0
0
0
0
0
0
0
0
0
0
0
0
0
0
0
0
0
0
0
0
0
0
0
0
0
0
0
0
0
0
0
0
0
0
0
0
0
0
0
0
0
0
0
0
0
0
0
0
0
0
0
0
0
0
0
0
0
0
0
0
0
0
0
0
0
0
0
0
0
0
0
0
0
0
0
0
0
0
0
0
0
0
0
0
0
0
0
0
0
0
0
0
0
0
0
0
0
0
0
0
0
0
0
0
0
0
0
0
0
0
0
0
0
0
0
0
0
0
0
0
0
0
0
0
0
0
0
0
0
0
0
0
0
0
0
0
0
0
0
0
0
0
0
0
0
0
0
0
0
0
0
0
0
0
0
0
0
0
0
0
0
0
0
0
0
0
0
0
0
0
0
0
0
0
0
0
0
0
0
0
0
0
0
0
0
0
0
0
0
0
0
0
0
0
0
0
0
0
0
0
0
0
0
0
0
0
0
0
0
0
0
0
0
0
0
0
0
0
0
0
0
0
0
0
0
0
0
0
0
0
0
0
0
0
0
0
0
0
0
0
0
0
0
-1.51489e-225
-2.06452e-198
-9.19003e-188
-1.13704e-181
-3.02208e-177
-2.41154e-173
-9.14932e-170
-1.94975e-166
-2.5196e-163
-2.08263e-160
-1.13962e-157
-4.18923e-155
-1.03151e-152
-1.65891e-150
-1.58951e-148
-4.38638e-147
1.44541e-145
1.8932e-138
2.95954e-131
4.27451e-124
1.08124e-116
4.49226e-109
2.03413e-101
4.51777e-94
2.73182e-83
2.75139e-83
7.59893e-59
3.73816e-51
1.32451e-44
5.18272e-39
4.91386e-34
1.6501e-29
2.86539e-26
3.23687e-24
1.02151e-22
1.66979e-21
1.77551e-20
1.37522e-19
8.33033e-19
4.15216e-18
1.76745e-17
6.60202e-17
2.20774e-16
6.7001e-16
1.85956e-15
4.7376e-15
1.11048e-14
2.40024e-14
4.79686e-14
8.89069e-14
1.53212e-13
2.45816e-13
3.67494e-13
5.14772e-13
6.87429e-13
8.97923e-13
1.19279e-12
1.79698e-12
3.59465e-12
8.42848e-12
1.60376e-11
1.71039e-11
1.30686e-11
1.57734e-11
6.19993e-10
5.594e-08
3.95122e-06
0.000190963
0.00670429
0.102143
0.623391
0.958549
0.998722
0.999836
0.999835
0.999828
0.999883
0.999964
0.999995
1
1
1
1
1
1
1
1
1
1
1
1
1
1
1
1
1
1
1
1
1
1
1
1
1
1
1
1
1
1
1
1
1
1
1
1
1
1
1
1
1
1
1
1
1
1
1
1
0.999999
0.999987
0.999819
0.997219
0.938671
0.440524
0.0506606
0.00147489
9.41908e-06
1.5197e-08
1.37518e-11
5.24517e-14
2.76297e-14
4.18516e-14
1.25384e-13
0
0
0
0
0
0
0
0
0
0
0
0
0
0
0
0
0
0
0
0
0
0
0
0
0
0
0
0
0
0
0
0
0
0
0
0
0
0
0
0
0
0
0
0
0
0
0
0
0
0
0
0
0
0
0
0
0
0
0
0
0
0
0
0
0
0
0
0
0
0
0
0
0
0
0
0
0
0
0
0
0
0
0
0
0
0
0
0
0
0
0
0
0
0
0
0
0
0
0
0
0
0
0
0
0
0
0
0
0
1.84876e-12
2.12344e-11
2.49431e-10
1.33548e-09
1.36914e-08
4.34592e-08
3.10465e-08
7.15841e-09
1.2703e-09
4.42169e-10
6.40235e-11
1.30672e-12
1.50799e-13
8.25098e-13
9.75277e-13
5.05279e-13
1.66749e-12
2.14849e-12
3.77335e-12
7.89965e-11
4.426e-10
1.20104e-09
6.25821e-09
2.63402e-08
3.81552e-08
1.32593e-08
1.30793e-09
2.42656e-10
2.1941e-11
2.13096e-12
5.19518e-13
8.54485e-12
3.25855e-10
6.82304e-09
4.52208e-08
6.51638e-08
4.5493e-08
7.00367e-09
1.01035e-09
3.97593e-10
5.37324e-11
9.09686e-13
1.76476e-13
2.23337e-12
1.87259e-11
1.09893e-11
7.34189e-12
2.486e-12
4.26251e-12
8.1569e-11
4.29331e-10
9.70478e-10
6.42413e-09
4.28282e-08
7.24028e-08
4.70048e-08
6.9471e-09
2.876e-10
9.3999e-12
6.76743e-13
0
0
0
0
0
0
0
0
0
0
0
0
0
0
0
0
0
0
0
0
0
0
0
0
0
0
0
0
0
0
0
0
0
0
0
0
0
0
0
0
0
0
0
0
0
0
0
0
0
0
0
0
0
0
0
0
0
0
0
0
0
0
0
0
0
0
0
0
0
0
0
0
0
0
0
0
0
0
0
0
0
0
0
0
0
0
0
0
0
0
0
0
0
0
0
0
0
0
0
0
0
0
0
0
0
0
0
0
0
0
0
0
0
0
0
0
0
0
0
0
0
0
0
0
0
0
0
0
0
0
0
0
0
0
0
0
0
0
0
0
0
0
0
0
0
0
0
0
0
0
0
0
0
0
0
0
0
0
0
0
0
0
0
0
0
0
0
0
0
0
0
0
0
0
0
0
0
0
0
0
0
0
0
0
0
0
0
0
0
0
0
0
0
0
0
0
0
0
0
0
0
0
0
0
0
0
0
0
0
0
0
0
0
0
0
0
0
0
0
0
0
0
0
0
0
0
0
0
0
0
0
0
0
0
0
0
0
0
0
0
-3.23861e-228
-2.32242e-201
-3.26308e-190
-4.48855e-183
-2.58462e-178
-2.6329e-174
-1.08296e-170
-2.33114e-167
-2.8749e-164
-2.19708e-161
-1.08441e-158
-3.51612e-156
-7.46704e-154
-9.99126e-152
-7.30896e-150
-7.69035e-149
1.50443e-145
1.16709e-138
1.37064e-131
2.60965e-124
2.98176e-117
8.81808e-110
2.60445e-101
8.62861e-93
8.8793e-85
3.42758e-71
1.87319e-61
6.89733e-53
1.66408e-46
5.0137e-41
3.84147e-36
1.04847e-31
2.72249e-28
4.69917e-26
1.80473e-24
3.43991e-23
4.16943e-22
3.62525e-21
2.43088e-20
1.32078e-19
6.02894e-19
2.37551e-18
8.2455e-18
2.55998e-17
7.1909e-17
1.84332e-16
4.34016e-16
9.43215e-16
1.89948e-15
3.55798e-15
6.22165e-15
1.01804e-14
1.56051e-14
2.24923e-14
3.08429e-14
4.12747e-14
5.58895e-14
7.86753e-14
1.20584e-13
2.31046e-13
6.22066e-13
2.29753e-12
5.7079e-12
5.81066e-12
1.37679e-11
1.05242e-09
9.16522e-08
5.18632e-06
0.000201151
0.00592719
0.0919612
0.603959
0.955204
0.998738
0.999987
0.999994
0.999988
0.99999
0.999995
0.999999
1
1
1
1
1
1
1
1
1
1
1
1
1
1
1
1
1
1
1
1
1
1
1
1
1
1
1
1
1
1
1
1
1
1
1
1
1
1
1
1
1
1
1
1
1
1
1
0.999998
0.99997
0.999497
0.990136
0.778304
0.189483
0.0110146
0.000128814
3.35735e-07
3.90611e-10
4.77507e-13
1.6399e-13
2.08915e-13
2.99213e-13
2.37093e-13
2.77466e-13
1.8603e-10
2.88703e-07
0.000127252
0.0110781
0.191949
0.785812
0.990944
0.999534
0.999971
0.999998
1
1
1
1
1
1
1
1
1
1
1
1
1
1
1
1
1
1
1
1
1
1
1
1
1
1
1
1
1
1
1
1
1
1
1
1
1
1
1
1
1
1
1
1
1
1
1
0.999999
0.999995
0.99999
0.999988
0.999994
0.999987
0.99873
0.955002
0.603082
0.0917111
0.00592515
0.000201742
5.22923e-06
9.2864e-08
1.06939e-09
1.3914e-11
5.8192e-12
5.73852e-12
2.33446e-12
6.37235e-13
2.38528e-13
1.25172e-13
8.18608e-14
5.82911e-14
4.3102e-14
3.22363e-14
2.35372e-14
1.63557e-14
1.0688e-14
6.54221e-15
3.7468e-15
2.00326e-15
9.96345e-16
4.59261e-16
1.95415e-16
7.63827e-17
2.72497e-17
8.79684e-18
2.54064e-18
6.46572e-19
1.42085e-19
2.62437e-20
3.93034e-21
4.54394e-22
3.7749e-23
2.00067e-24
5.29919e-26
3.15467e-28
1.27594e-31
4.7756e-36
6.43236e-41
2.22634e-46
9.88004e-53
3.56456e-61
7.35995e-71
1.58835e-84
1.2413e-92
4.50416e-101
1.21157e-109
4.10837e-117
3.5741e-124
1.87495e-131
1.56913e-138
2.0403e-145
2.03212e-152
-3.50022e-154
-1.23441e-155
-1.27368e-157
-7.36838e-160
-2.68207e-162
-6.2798e-165
-9.39138e-168
-8.67791e-171
-4.62976e-174
-1.29628e-177
-1.52601e-181
-3.89176e-186
-9.05907e-193
-7.99348e-204
-2.031e-241
-1.45279e-250
0
0
0
0
0
0
0
0
0
0
0
0
0
0
0
0
0
0
0
0
0
0
0
0
0
0
0
0
0
0
0
0
0
0
0
0
0
0
0
0
0
0
0
0
0
0
0
0
0
0
0
0
0
0
0
0
0
0
0
0
0
0
0
0
0
0
0
0
0
0
0
0
0
0
0
0
0
0
0
0
0
0
0
0
0
0
0
0
0
0
0
0
0
0
0
0
0
0
0
0
0
0
0
0
0
0
0
0
0
0
0
0
0
0
0
0
0
0
0
0
0
0
0
0
0
0
0
0
0
0
0
0
0
0
0
0
0
0
0
0
0
0
0
0
0
0
0
0
0
0
0
0
0
0
0
0
0
0
0
0
0
0
0
0
0
0
0
0
0
0
0
0
0
0
0
0
0
0
0
0
0
0
0
0
0
0
0
0
0
0
0
0
0
0
0
0
0
0
0
0
0
0
0
0
0
0
0
0
0
0
0
0
0
0
0
0
0
0
0
0
0
0
0
0
0
0
0
0
0
0
0
0
0
0
0
0
0
0
0
0
0
0
0
0
0
0
0
0
0
0
0
0
0
0
0
0
0
0
0
0
0
0
0
-8.53769e-231
-3.12708e-204
-9.68926e-193
-3.36159e-185
-8.00401e-180
-1.29656e-175
-6.58144e-172
-1.56797e-168
-2.01318e-165
-1.5448e-162
-7.47691e-160
-2.31551e-157
-4.56592e-155
-5.46051e-153
-3.18601e-151
-1.40266e-150
3.22537e-146
2.81381e-139
1.7656e-132
2.22381e-125
3.67577e-118
3.08394e-111
1.68165e-103
1.64747e-91
1.66399e-91
5.94094e-76
6.93629e-64
4.55817e-55
8.31707e-49
2.12833e-43
1.42915e-38
3.43171e-34
1.50008e-30
3.89841e-28
1.72892e-26
3.75699e-25
5.16701e-24
5.07734e-23
3.8315e-22
2.33117e-21
1.18456e-20
5.16172e-20
1.96794e-19
6.66584e-19
2.02949e-18
5.60409e-18
1.4135e-17
3.27648e-17
7.02115e-17
1.39972e-16
2.6141e-16
4.60822e-16
7.72883e-16
1.24319e-15
1.9344e-15
2.94123e-15
4.44104e-15
6.84315e-15
1.10457e-14
1.90619e-14
3.89422e-14
1.1548e-13
4.48708e-13
1.24638e-12
2.32901e-12
2.53531e-11
1.98878e-09
1.25348e-07
5.33875e-06
0.000197177
0.00543277
0.0938865
0.619336
0.95921
0.998988
0.999995
1
1
1
1
1
1
1
1
1
1
1
1
1
1
1
1
1
1
1
1
1
1
1
1
1
1
1
1
1
1
1
1
1
1
1
1
1
1
1
1
1
1
1
1
1
1
1
1
1
1
1
0.999996
0.999926
0.998533
0.962256
0.522187
0.0680145
0.00191611
1.06002e-05
1.63307e-08
1.86245e-11
3.61066e-12
3.76401e-12
4.6708e-12
5.60055e-12
3.98264e-12
3.46997e-12
1.05387e-11
1.53085e-08
1.23897e-05
0.00222404
0.0756907
0.553504
0.969515
0.998808
0.999936
0.999996
1
1
1
1
1
1
1
1
1
1
1
1
1
1
1
1
1
1
1
1
1
1
1
1
1
1
1
1
1
1
1
1
1
1
1
1
1
1
1
1
1
1
1
1
1
1
1
1
1
1
1
0.999995
0.998978
0.958923
0.617938
0.0933751
0.00540577
0.000196767
5.35398e-06
1.26478e-07
2.01539e-09
2.57111e-11
2.33527e-12
1.24985e-12
4.52405e-13
1.17589e-13
4.01145e-14
1.98042e-14
1.15399e-14
7.17697e-15
4.67008e-15
3.09878e-15
2.04098e-15
1.31342e-15
8.17678e-16
4.88257e-16
2.77405e-16
1.4878e-16
7.47601e-17
3.49532e-17
1.51093e-17
6.00299e-18
2.17874e-18
7.17257e-19
2.12274e-19
5.5825e-20
1.28486e-20
2.5369e-21
4.18567e-22
5.57255e-23
5.70473e-24
4.18163e-25
1.94747e-26
4.4776e-28
1.77422e-30
4.27226e-34
1.81239e-38
2.76465e-43
1.12725e-48
6.58414e-55
1.30634e-63
1.73458e-76
2.52111e-91
2.4961e-91
2.41947e-103
4.23345e-111
5.1375e-118
3.12263e-125
2.48101e-132
3.87505e-139
4.51446e-146
6.14166e-153
-4.5316e-156
-5.28659e-157
-6.54261e-159
-4.19616e-161
-1.62665e-163
-3.93804e-166
-5.90802e-169
-5.30702e-172
-2.60503e-175
-6.08856e-179
-4.9305e-183
-3.79082e-188
-2.75169e-195
-1.09012e-206
-1.63996e-244
-1.0048e-253
0
0
0
0
0
0
0
0
0
0
0
0
0
0
0
0
0
0
0
0
0
0
0
0
0
0
0
0
0
0
0
0
0
0
0
0
0
0
0
0
0
0
0
0
0
0
0
0
0
0
0
0
0
0
0
0
0
0
0
0
0
0
0
0
0
0
0
0
0
0
0
0
0
0
0
0
0
0
0
0
0
0
0
0
0
0
0
0
0
0
0
0
0
0
0
0
0
0
0
0
0
0
0
0
0
0
0
0
0
0
0
0
0
0
0
0
0
0
0
0
0
0
0
0
0
0
0
0
0
0
0
4.0817e-10
1.78977e-08
6.51638e-08
6.50321e-08
2.90196e-08
3.37688e-09
8.56933e-10
3.26109e-10
2.88653e-11
3.83514e-13
2.06109e-13
9.49482e-12
1.59345e-10
1.72306e-10
1.42814e-10
1.05614e-11
6.15104e-12
8.03711e-11
4.18178e-10
8.46608e-10
3.89869e-09
3.44627e-08
7.23416e-08
7.24028e-08
1.90264e-08
3.72265e-10
0
0
0
0
0
0
0
0
0
0
0
0
0
0
0
0
0
0
0
0
0
0
0
0
0
0
0
0
0
0
0
0
0
0
0
0
0
0
0
0
0
0
0
0
0
0
0
0
0
0
0
0
0
0
0
0
0
0
0
0
0
0
0
0
0
0
0
0
0
0
0
0
0
0
0
0
0
0
0
0
0
0
0
0
0
0
0
0
0
0
0
0
0
0
0
0
0
0
0
0
0
0
0
0
0
0
0
0
0
0
0
0
0
0
0
0
0
0
0
0
0
0
0
0
0
0
0
0
0
0
0
0
0
0
0
0
0
0
0
0
0
0
0
0
0
0
0
0
0
0
0
0
0
0
0
0
0
0
0
0
0
0
0
0
0
0
0
0
0
0
0
0
0
0
0
0
0
0
0
0
0
0
0
0
0
0
0
0
0
0
0
0
0
0
0
0
0
0
0
0
0
0
0
0
0
0
0
0
0
0
0
0
0
0
0
0
0
0
0
0
0
0
0
0
0
0
0
0
0
0
0
0
0
0
0
0
0
0
0
0
0
0
0
0
0
0
0
0
0
0
0
0
0
0
0
0
0
0
0
0
0
0
0
0
0
0
0
0
0
0
0
0
0
0
0
0
0
0
0
0
0
0
0
0
0
0
0
0
0
0
0
0
0
0
0
0
0
0
0
0
0
0
0
0
0
0
0
0
0
0
0
0
0
0
0
0
0
0
0
0
0
0
0
0
0
0
0
0
0
0
0
0
0
0
0
0
0
0
-2.66679e-233
-5.0007e-207
-2.89489e-195
-1.93368e-187
-1.18031e-181
-3.37994e-177
-2.32019e-173
-6.68809e-170
-9.66985e-167
-8.04247e-164
-4.08217e-161
-1.29128e-158
-2.53453e-156
-2.89653e-154
-1.21357e-152
-4.42757e-152
2.12548e-147
1.7103e-140
1.49065e-133
1.00957e-126
1.29856e-119
2.88808e-112
4.51779e-104
3.40591e-97
7.91423e-86
5.46585e-77
5.5329e-77
5.44731e-58
1.09974e-51
2.72999e-46
1.78289e-41
4.23885e-37
4.22051e-33
1.83267e-30
9.52119e-29
2.4334e-27
3.91196e-26
4.45523e-25
3.86501e-24
2.68315e-23
1.54463e-22
7.57282e-22
3.22667e-21
1.21364e-20
4.07905e-20
1.23729e-19
3.417e-19
8.66583e-19
2.03651e-18
4.47839e-18
9.31383e-18
1.85233e-17
3.56117e-17
6.682e-17
1.23199e-16
2.2406e-16
4.05092e-16
7.42937e-16
1.40696e-15
2.74282e-15
5.82731e-15
1.67801e-14
7.49429e-14
3.64734e-13
1.14109e-12
2.97417e-12
4.92564e-11
3.00493e-09
1.3904e-07
5.59904e-06
0.000209232
0.00607124
0.112439
0.669031
0.968917
0.99934
0.999998
1
1
1
1
1
1
1
1
1
1
1
1
1
1
1
1
1
1
1
1
1
1
1
1
1
1
1
1
1
1
1
1
1
1
1
1
1
1
1
1
1
1
1
1
1
1
1
1
1
1
0.999992
0.999806
0.995561
0.874371
0.277848
0.0204975
0.000305961
9.0228e-07
1.31371e-09
3.13411e-10
4.57681e-10
4.60714e-10
4.33611e-10
4.17011e-10
2.81267e-10
1.57694e-09
1.37531e-06
0.000427907
0.0263293
0.326803
0.906715
0.996947
0.999856
0.999993
1
1
1
1
1
1
1
1
1
1
1
1
1
1
1
1
1
1
1
1
1
1
1
1
1
1
1
1
1
1
1
1
1
1
1
1
1
1
1
1
1
1
1
1
1
1
1
1
1
1
0.999998
0.999331
0.968626
0.66732
0.111596
0.00602118
0.000207794
5.58025e-06
1.39344e-07
3.02928e-09
4.9811e-11
3.00888e-12
1.15715e-12
3.70249e-13
7.62305e-14
1.71795e-14
6.02624e-15
2.86186e-15
1.47793e-15
7.84335e-16
4.29248e-16
2.38078e-16
1.31194e-16
7.12889e-17
3.80549e-17
1.98235e-17
9.98221e-18
4.8073e-18
2.18987e-18
9.33633e-19
3.6891e-19
1.33882e-19
4.42425e-20
1.31963e-20
3.51766e-21
8.27878e-22
1.69373e-22
2.95203e-23
4.26862e-24
4.94272e-25
4.3638e-26
2.73284e-27
1.07806e-28
2.09398e-30
5.14431e-33
5.39909e-37
2.30571e-41
3.59039e-46
1.51089e-51
8.01405e-58
9.09287e-77
8.98475e-77
1.28447e-85
5.34858e-97
7.46419e-104
4.26243e-112
1.83764e-119
1.43497e-126
2.11956e-133
2.38343e-140
3.05136e-147
4.62884e-154
-1.31392e-157
-2.28776e-158
-3.19644e-160
-2.11688e-162
-8.14553e-165
-1.90187e-167
-2.66329e-170
-2.1495e-173
-8.87477e-177
-1.57239e-180
-7.68465e-185
-2.59598e-190
-8.36535e-198
-1.76694e-209
-1.67596e-247
-8.75855e-257
0
0
0
0
0
0
0
0
0
0
0
0
0
0
0
0
0
0
0
0
0
0
0
0
0
0
0
0
0
0
0
0
0
0
0
0
0
0
0
0
0
0
0
0
0
0
0
0
0
0
0
0
0
0
0
0
0
0
0
0
0
0
0
0
0
0
0
0
0
0
0
0
0
0
0
0
0
0
0
0
0
0
0
0
0
0
0
0
0
0
0
0
0
0
0
0
0
0
0
0
0
0
0
0
0
0
0
0
0
0
0
0
0
0
0
0
0
0
0
0
0