/*--------------------------------*- C++ -*----------------------------------*\
| =========                 |                                                 |
| \\      /  F ield         | OpenFOAM: The Open Source CFD Toolbox           |
|  \\    /   O peration     | Version:  2.2.1                                 |
|   \\  /    A nd           | Web:      www.OpenFOAM.org                      |
|    \\/     M anipulation  |                                                 |
\*---------------------------------------------------------------------------*/
FoamFile
{
    version     2.0;
    format      ascii;
    class       volScalarField;
    location    "1e-05";
    object      p;
}
// * * * * * * * * * * * * * * * * * * * * * * * * * * * * * * * * * * * * * //

dimensions      [1 -1 -2 0 0 0 0];

internalField   nonuniform List<scalar> 
22464
(
-2.5658
-1.94648
2.31151
7.23551
14.2054
26.0255
46.9222
86.9879
172.947
-146.058
-3512.23
-10604.1
-16667.1
-12815.2
-10073.6
-8804.82
-8175.59
-7828.7
-7636.22
-7526.48
-7461.02
-7418.24
-7384.66
-7352.76
-7321.13
-7290.9
-7275.39
-7262.84
-7238.9
-7200.76
-7161.65
-7126.42
-7110.77
-7125.36
-7092.22
-7044.96
-6896.65
-6862.38
-6840.42
-6814.1
-6838.46
-6805.2
-6720.81
-6676.78
-6764.38
-6778.08
-6752.69
-6725.1
-6699.2
-6652.72
-6334.99
-4550.06
-34.7582
-2459.49
-6436.79
-6484.92
-6396.96
-6338.84
-6288.94
-6243.85
-6201.31
-6159.83
-6118.88
-6078.33
-6038.08
-5997.92
-5957.28
-5915.05
-5869.13
-5815.02
-5739.48
-5604.21
-5370.58
-5252.2
-4688.26
-881.617
-1776.78
2059.87
5142.63
5807.14
780.776
-286.738
87.4273
65.5704
50.6949
55.414
39.9643
45.8314
47.7071
51.5904
65.4377
98.7926
136.756
162.744
176.238
162.258
129.16
94.6186
66.4602
47.2817
34.3375
25.08
17.8108
11.7716
6.68021
2.4993
-0.624138
-2.46224
-3.06938
-3.09486
-3.08249
-3.06162
-3.03489
-3.00802
-2.98185
-2.95671
-2.9328
-2.91026
-2.88914
-2.86945
-2.85119
-2.83432
-2.81879
-2.80453
-2.79147
-2.77949
-2.76853
-2.75847
-2.74924
-2.74075
-2.73292
-2.72568
-2.71894
-2.71266
-2.70675
-2.70117
-2.69586
-2.69076
-2.6858
-2.68096
-2.67617
-2.67139
-2.66657
-2.66167
-2.65665
-2.65149
-2.64614
-2.64059
-2.63482
-2.6288
-2.62252
-2.61596
-2.60911
-2.60197
-2.59454
-2.5868
-2.57876
-2.57039
-2.56171
-2.55271
-2.54337
-2.53369
-2.52367
-2.51329
-2.50255
-2.49143
-2.47992
-2.46802
-2.45569
-2.44295
-2.42976
-2.41611
-2.40199
-2.38738
-2.37226
-2.35661
-2.34042
-2.32367
-2.30633
-2.2884
-2.26987
-2.25073
-2.23096
-2.21056
-2.18952
-2.16783
-2.14549
-2.1225
-2.09884
-2.07452
-2.04953
-2.02388
-1.99757
-1.97061
-1.94299
-1.91473
-1.88583
-1.8563
-1.82615
-1.7954
-1.76405
-1.73214
-1.69968
-1.66668
-1.63317
-1.59919
-1.56475
-1.52989
-1.49462
-1.45899
-1.42301
-1.38673
-1.35016
-1.31335
-1.27631
-1.23909
-1.20172
-1.16424
-1.12669
-1.0891
-1.05152
-1.01397
-0.976511
-0.939167
-0.901979
-0.864984
-0.82822
-0.791723
-0.755527
-0.719664
-0.684167
-0.64907
-0.614407
-0.580212
-0.546521
-0.513365
-0.480776
-0.44878
-0.417405
-0.386674
-0.356609
-0.327229
-0.298553
-0.270597
-0.243373
-0.216897
-0.191179
-0.166229
-0.142053
-0.118656
-0.0960367
-0.0741959
-0.05313
-0.0328337
-0.0132988
0.00548587
0.0235345
0.0408631
0.0574891
0.0734303
0.0887054
0.103334
0.117339
0.130745
0.143579
0.155867
0.167634
0.178895
0.189658
0.199923
0.209692
0.218981
0.227858
0.23632
0.24426
0.251567
0.258837
0.265704
0.271259
0.27606
0.272617
0.262805
0.240799
0.206589
0.169122
0.170233
0.214157
0.255128
0.281608
0.295595
0.297208
0.297114
0.295682
0.293949
0.291931
0.2896
0.286959
0.283939
0.280506
0.276653
0.27236
0.267618
0.262424
0.256773
0.250648
0.244025
0.236874
0.229165
0.220865
0.211947
0.202384
0.192149
0.181219
0.16957
0.157179
0.144029
0.130102
0.115382
0.0998576
0.0835158
0.0663465
0.0483402
0.0294884
0.00978387
-0.0107788
-0.0322026
-0.0544882
-0.0776342
-0.101637
-0.126492
-0.152192
-0.17873
-0.206094
-0.234273
-0.263251
-0.293011
-0.323535
-0.354801
-0.386789
-0.419477
-0.452843
-0.486864
-0.521514
-0.556771
-0.592608
-0.629
-0.665921
-0.703344
-0.741244
-0.779591
-0.818356
-0.85751
-0.897023
-0.936864
-0.977004
-1.01741
-1.05806
-1.09891
-1.13993
-1.1811
-1.22238
-1.26374
-1.30516
-1.34661
-1.38807
-1.4295
-1.47088
-1.51219
-1.55339
-1.59447
-1.63539
-1.67615
-1.71671
-1.75706
-1.79719
-1.83707
-1.87669
-1.91604
-1.9551
-1.99386
-2.03231
-2.07044
-2.10823
-2.14568
-2.18278
-2.21951
-2.25588
-2.29187
-2.32749
-2.36271
-2.39755
-2.43199
-2.46602
-2.49965
-2.53286
-2.56565
-2.59802
-2.62996
-2.66147
-2.69254
-2.72315
-2.75332
-2.78302
-2.81226
-2.84102
-2.8693
-2.89709
-2.92438
-2.95116
-2.97741
-3.00312
-3.0283
-3.05292
-3.07697
-3.10046
-3.12338
-3.14572
-3.16749
-3.18868
-3.20929
-3.22935
-3.24886
-3.26785
-3.28635
-3.30438
-3.32199
-3.33923
-3.35614
-3.37279
-3.38923
-3.40555
-3.4218
-3.43805
-3.45438
-3.47085
-3.48752
-3.50446
-3.5217
-3.53931
-3.55732
-3.57575
-3.59465
-3.61402
-3.63389
-3.65426
-3.67515
-3.69654
-3.71843
-3.74079
-3.76356
-3.78667
-3.81002
-3.83348
-3.85687
-3.87998
-3.9025
-3.92402
-3.94404
-3.96154
-3.97077
-3.9687
-3.9279
-3.30901
-1.46075
1.67536
5.87224
10.9817
17.0373
24.3159
33.5689
46.4229
65.495
93.3239
127.744
161.046
175.334
161.657
136.017
98.6276
65.3073
51.2763
47.2842
45.386
39.4774
54.8735
50.5418
65.1082
87.4593
-287.407
761.887
5804.31
5135.05
2064.62
-1780.72
-875.398
-4680.44
-5245.76
-5363.55
-5595.9
-5730.73
-5806.21
-5860.31
-5906.23
-5948.44
-5989.05
-6029.17
-6069.31
-6109.7
-6150.4
-6191.58
-6233.78
-6278.45
-6327.91
-6385.5
-6472.81
-6423.74
-2444.4
-13.4322
-4551.1
-6325.41
-6639.67
-6684
-6708.37
-6734.63
-6758.65
-6744.25
-6653.8
-6696.18
-6777.83
-6813.02
-6787.5
-6812.88
-6831.25
-6860.08
-7005.5
-7051.53
-7081.23
-7063.86
-7075.48
-7106.67
-7141.26
-7174.75
-7193.69
-7200.36
-7207.24
-7228.74
-7249.76
-7268.97
-7286.04
-7307.19
-7345.85
-7421.96
-7571.18
-7862.82
-8419.87
-9569.09
-12089.6
-16018.9
-11383.3
-4057.54
-214.543
188.432
92.1612
47.9178
25.7573
13.6017
6.64489
1.84623
-2.24779
-2.70146
0.131945
0.099544
0.0754476
0.0545515
0.0374342
0.0217297
0.00922215
0.000325161
-0.00615843
-0.0114632
-0.0163206
-0.0210692
-0.0258484
-0.0307156
-0.0356816
-0.0407343
-0.0458542
-0.05102
-0.056211
-0.0614076
-0.0665916
-0.0717458
-0.0768543
-0.0819022
-0.0868759
-0.0917633
-0.0965532
-0.101236
-0.105802
-0.110243
-0.114554
-0.118727
-0.122757
-0.126641
-0.130375
-0.133956
-0.137383
-0.140653
-0.143766
-0.146721
-0.149518
-0.152156
-0.154637
-0.15696
-0.159127
-0.161138
-0.162995
-0.164699
-0.16625
-0.167651
-0.168902
-0.170005
-0.17096
-0.171769
-0.172432
-0.172951
-0.173326
-0.173558
-0.173646
-0.173592
-0.173395
-0.173056
-0.172574
-0.171948
-0.17118
-0.170267
-0.169209
-0.168006
-0.166656
-0.165158
-0.16351
-0.161713
-0.159764
-0.157662
-0.155407
-0.152997
-0.150432
-0.147711
-0.144834
-0.141801
-0.138612
-0.135268
-0.131771
-0.128122
-0.124324
-0.12038
-0.116293
-0.112069
-0.107712
-0.103228
-0.0986244
-0.0939077
-0.0890865
-0.0841701
-0.0791688
-0.074094
-0.0689583
-0.0637758
-0.058562
-0.0533336
-0.0481082
-0.0429034
-0.0377364
-0.0326216
-0.0275607
-0.0225487
-0.0175991
-0.0129134
-0.00891719
-0.00582958
-0.00295441
0.00167325
0.00993423
0.0215349
0.0378963
0.0646995
0.0949402
0.131163
-2.36115
-2.02449
-1.59437
-1.06752
-0.501714
0.0482738
0.548102
0.981459
1.34371
1.63702
1.86707
2.04151
2.16892
2.25848
2.31948
2.36056
2.38902
2.41024
2.42721
2.44017
2.4473
2.4453
2.4298
2.39505
2.33492
2.24375
2.11514
1.94072
1.71131
1.41876
1.0573
0.626498
0.133915
-0.40143
-0.944932
-1.45014
-1.86538
-2.20342
0.154988
0.196933
0.230156
0.255511
0.260628
0.263903
0.265506
0.266884
0.267586
0.267671
0.267072
0.265774
0.263791
0.261174
0.257934
0.254092
0.249673
0.244693
0.239153
0.233044
0.226346
0.219036
0.211092
0.20249
0.193209
0.183227
0.172522
0.161074
0.148864
0.135874
0.122089
0.107496
0.0920836
0.0758407
0.0587579
0.0408261
0.0220374
0.00238524
-0.0181349
-0.0395253
-0.0617861
-0.084915
-0.108908
-0.133761
-0.159466
-0.186015
-0.213397
-0.2416
-0.270607
-0.300401
-0.330963
-0.362272
-0.394307
-0.427045
-0.460466
-0.494544
-0.529256
-0.564576
-0.60048
-0.636942
-0.673936
-0.711435
-0.749411
-0.787838
-0.826684
-0.86592
-0.905517
-0.945444
-0.985672
-1.02617
-1.0669
-1.10785
-1.14897
-1.19023
-1.2316
-1.27306
-1.31458
-1.35613
-1.39768
-1.43921
-1.4807
-1.5221
-1.56341
-1.60459
-1.64561
-1.68647
-1.72714
-1.76759
-1.80782
-1.84781
-1.88754
-1.92699
-1.96615
-2.00502
-2.04357
-2.08181
-2.1197
-2.15726
-2.19446
-2.2313
-2.26777
-2.30387
-2.33959
-2.37492
-2.40986
-2.44441
-2.47855
-2.51228
-2.54559
-2.57849
-2.61097
-2.64302
-2.67463
-2.70581
-2.73653
-2.7668
-2.79662
-2.82597
-2.85485
-2.88325
-2.91115
-2.93856
-2.96546
-2.99184
-3.01769
-3.043
-3.06776
-3.09196
-3.11561
-3.13869
-3.1612
-3.18314
-3.20452
-3.22534
-3.24561
-3.26536
-3.2846
-3.30337
-3.32169
-3.33962
-3.35719
-3.37448
-3.39153
-3.40843
-3.42523
-3.44201
-3.45886
-3.47584
-3.49302
-3.51049
-3.52829
-3.54649
-3.56515
-3.58432
-3.60403
-3.62433
-3.64526
-3.66684
-3.68912
-3.71213
-3.73589
-3.76042
-3.78576
-3.8119
-3.83884
-3.86659
-3.89514
-3.92451
-3.95475
-3.98604
-4.01878
-4.05376
-4.09224
-4.13801
-4.21244
-4.37432
-4.61387
-4.83414
-4.97701
-5.04843
-5.07543
-5.06841
-5.01132
-4.88413
-4.6702
-4.37631
-4.11801
-4.01952
-4.28277
-4.60788
-4.78211
-5.36925
-5.72519
-5.88226
-6.10082
-8.81377
-10.2872
-10.0193
-16.5599
-7.04051
-28.7549
-52.1902
-58.9307
-200.428
-545.19
-675.726
-1185.09
-600.45
-3212.32
-3353.34
-3171.49
-5021.58
-5583.56
-5692.49
-5760.45
-5817.74
-5868.99
-5916.91
-5962.7
-6007.1
-6050.61
-6093.52
-6135.97
-6178
-6219.55
-6260.36
-6300.27
-6340.71
-6378.57
-6382.1
-5950.18
-4652.04
-4013.97
-5681.54
-6545.04
-6698.91
-6732.56
-6749.15
-6770.3
-6793.89
-6816.07
-6841.29
-6866.76
-6895.24
-6923.56
-6951.8
-6981.67
-7012.68
-7044.49
-7068.29
-7097.28
-7126.27
-7153.57
-7179.68
-7206.61
-7233.3
-7259.63
-7285.72
-7311.04
-7336.85
-7363.87
-7393.54
-7428.22
-7472.43
-7533.98
-7626.72
-7772.82
-8007.17
-8414.65
-9127.22
-9948.39
-9764.9
-4692.57
-363.01
-17.5839
57.4398
50.1414
33.4328
21.4309
13.3636
7.57368
2.83921
-1.43247
-1.11061
3.32851
8.20139
14.0834
22.1499
33.9262
50.26
59.8834
-0.212827
-302.032
-4277.95
-10262.8
-10462.9
-9568.19
-8770.98
-8294.59
-8011.45
-7827.63
-7704.91
-7619.74
-7556.88
-7507.19
-7465.28
-7428.19
-7393.98
-7361.5
-7329.24
-7297.44
-7265.94
-7234.7
-7204.65
-7173.77
-7141.75
-7109.66
-7083.21
-7048.68
-7015.23
-6983.64
-6952.85
-6922.62
-6892.41
-6865.29
-6838.66
-6814.97
-6790.06
-6767.63
-6749.7
-6714.49
-6557.61
-5671.65
-4049.52
-4685.08
-5969.04
-6396.12
-6391.31
-6352.59
-6311.48
-6271.04
-6229.79
-6187.87
-6145.51
-6102.79
-6059.67
-6016.03
-5971.55
-5925.69
-5877.71
-5826.43
-5769.11
-5701.12
-5591.88
-5026.67
-3175.33
-3353.99
-3212.27
-591.942
-1164.74
-655.27
-541.419
-200.11
-58.5328
-51.6438
-28.5992
-6.63381
-16.2076
-9.6831
-9.91396
-8.46393
-5.72971
-5.47589
-5.30457
-4.94932
-4.34901
-4.12689
-3.7665
-3.48629
-3.55772
-3.78867
-4.05062
-4.2386
-4.33361
-4.36265
-4.34037
-4.28555
-4.1881
-4.02131
-3.77911
-3.51942
-3.33957
-3.25022
-3.19255
-3.14482
-3.10302
-3.0657
-3.03188
-3.00094
-2.97252
-2.9464
-2.92239
-2.90036
-2.88018
-2.86172
-2.84485
-2.82945
-2.81538
-2.80252
-2.79075
-2.77997
-2.77008
-2.76097
-2.75256
-2.74476
-2.73751
-2.73073
-2.72435
-2.7183
-2.71252
-2.70696
-2.70155
-2.69624
-2.69099
-2.68573
-2.68043
-2.67504
-2.66952
-2.66386
-2.65802
-2.65197
-2.64569
-2.63916
-2.63238
-2.62532
-2.61798
-2.61036
-2.60245
-2.59423
-2.5857
-2.57686
-2.56771
-2.55822
-2.5484
-2.53824
-2.52773
-2.51686
-2.50562
-2.49399
-2.48196
-2.46952
-2.45665
-2.44335
-2.42959
-2.41535
-2.40062
-2.38538
-2.36962
-2.35331
-2.33643
-2.31898
-2.30094
-2.28229
-2.26303
-2.24315
-2.22263
-2.20147
-2.17967
-2.15721
-2.13411
-2.11033
-2.08589
-2.06079
-2.03502
-2.0086
-1.98152
-1.9538
-1.92543
-1.89641
-1.86677
-1.83651
-1.80564
-1.77419
-1.74216
-1.70958
-1.67648
-1.64287
-1.60878
-1.57423
-1.53927
-1.5039
-1.46817
-1.43209
-1.39571
-1.35905
-1.32213
-1.285
-1.24769
-1.21023
-1.17266
-1.13502
-1.09735
-1.05968
-1.02206
-0.984524
-0.947104
-0.909843
-0.87278
-0.835951
-0.799393
-0.763137
-0.727218
-0.691667
-0.656518
-0.621807
-0.587568
-0.553836
-0.520644
-0.488023
-0.456002
-0.424606
-0.393861
-0.363788
-0.334406
-0.305735
-0.277788
-0.250582
-0.224131
-0.198448
-0.173541
-0.149418
-0.126084
-0.103541
-0.0817903
-0.0608295
-0.0406551
-0.0212601
-0.00263465
0.0152336
0.0323588
0.0487555
0.0644384
0.0794223
0.0937229
0.107358
0.120346
0.132707
0.144462
0.155625
0.166202
0.176189
0.185561
0.194264
0.202313
0.209794
0.216451
0.222194
0.227139
0.231998
0.237189
0.240326
0.24271
0.227665
0.209782
0.182503
0.148591
0.0992894
0.07102
0.0551981
0.0506372
0.0407893
0.027875
0.0176853
0.0099035
0.00316211
-0.00315886
-0.00921256
-0.0150572
-0.0208019
-0.0264939
-0.0321499
-0.0377748
-0.0433679
-0.0489239
-0.0544352
-0.0598925
-0.0652857
-0.0706041
-0.0758375
-0.0809758
-0.0860102
-0.0909324
-0.0957345
-0.100409
-0.104949
-0.109349
-0.113604
-0.117708
-0.12166
-0.125456
-0.129093
-0.13257
-0.135886
-0.139039
-0.142029
-0.144857
-0.14752
-0.150021
-0.152359
-0.154534
-0.156548
-0.158402
-0.160097
-0.161633
-0.163011
-0.164234
-0.165301
-0.166214
-0.166973
-0.16758
-0.168035
-0.168339
-0.168492
-0.168495
-0.168348
-0.168052
-0.167607
-0.167012
-0.166269
-0.165376
-0.164333
-0.16314
-0.161796
-0.160299
-0.15865
-0.156847
-0.154888
-0.152773
-0.1505
-0.14807
-0.14548
-0.142731
-0.139822
-0.136753
-0.133525
-0.130139
-0.126597
-0.1229
-0.119051
-0.115053
-0.11091
-0.106626
-0.102206
-0.0976548
-0.0929778
-0.0881804
-0.0832679
-0.0782459
-0.07312
-0.0678961
-0.062581
-0.057182
-0.0517075
-0.0461672
-0.0405715
-0.0349297
-0.0292485
-0.0235306
-0.0177712
-0.0119503
-0.00599499
6.07789e-05
0.00615073
0.0122634
0.0186773
0.0258966
0.0366338
0.0542962
0.0633301
0.0537206
0.0710469
0.103164
-0.605803
-0.0330029
0.451178
0.89745
1.30869
1.67908
2.00723
2.29331
2.53906
2.74624
2.91663
3.05267
3.1575
3.23508
3.28998
3.32736
3.35291
3.37157
3.386
3.39649
3.4013
3.39657
3.37587
3.33075
3.25328
3.13816
2.9822
2.78297
2.53918
2.25062
1.92061
1.55725
1.16718
0.747912
0.281239
-0.288144
0.130954
0.09671
0.0776879
0.0837482
0.0696886
0.047311
0.0333796
0.0238124
0.0153555
0.0075041
0.000294661
-0.00640061
-0.0128322
-0.0191056
-0.0252517
-0.0312911
-0.0372374
-0.0430966
-0.0488684
-0.0545492
-0.0601336
-0.0656152
-0.0709878
-0.076245
-0.0813809
-0.0863899
-0.0912664
-0.0960047
-0.1006
-0.105046
-0.10934
-0.113478
-0.117458
-0.121276
-0.124931
-0.128422
-0.131748
-0.134908
-0.137901
-0.140728
-0.143387
-0.145879
-0.148204
-0.150363
-0.152357
-0.154186
-0.15585
-0.157352
-0.158692
-0.159871
-0.160889
-0.161749
-0.162449
-0.162992
-0.163377
-0.163606
-0.16368
-0.163598
-0.163362
-0.162971
-0.162427
-0.16173
-0.160879
-0.159875
-0.158718
-0.157407
-0.155941
-0.154321
-0.152544
-0.150609
-0.148516
-0.146263
-0.143849
-0.141274
-0.138537
-0.135638
-0.132576
-0.129353
-0.125968
-0.122424
-0.118723
-0.114867
-0.110859
-0.106704
-0.102406
-0.0979686
-0.093398
-0.0886988
-0.0838756
-0.0789325
-0.0738729
-0.0686993
-0.0634137
-0.0580175
-0.0525121
-0.046899
-0.0411811
-0.0353621
-0.0294459
-0.0234342
-0.0173281
-0.0111357
-0.00487086
0.00155627
0.0081285
0.0148227
0.0217883
0.0294776
0.0378117
0.0452341
0.0531435
0.0822443
0.115922
0.0688786
0.0958745
0.141702
4.13739
8.8744
14.3019
21.1426
29.9403
38.9911
41.9189
45.7521
-75.722
-1477.45
-7625.51
-9564.31
-9196.24
-8723.16
-8363.1
-8115.11
-7935.43
-7803.83
-7705.46
-7629.39
-7568.04
-7516.41
-7471.25
-7430.39
-7392.33
-7356
-7320.87
-7286.67
-7253.24
-7220.46
-7187.89
-7155.46
-7123.5
-7091.76
-7058.59
-7025.54
-6993.29
-6961.95
-6931.25
-6901.46
-6873.15
-6846.34
-6821.33
-6798.11
-6778.42
-6760.21
-6722.33
-6662.99
-6668.38
-6587.32
-6169.38
-6286.52
-6352.3
-6358.69
-6332.68
-6296.79
-6257.73
-6216.55
-6173.86
-6130.01
-6085.13
-6039.14
-5991.81
-5942.71
-5891.24
-5836.75
-5778.52
-5713.54
-5620.17
-5287.79
-4287.37
-4783.11
-3438.72
-3292.15
-2805.76
-1489.74
-527.404
-71.3464
-33.6856
-13.2999
-23.7775
-23.5118
-16.4803
-14.4643
-11.6345
-10.181
-9.06199
-7.77215
-6.62241
-5.886
-5.39631
-4.95922
-4.61426
-4.32532
-4.1259
-4.06307
-4.10731
-4.19653
-4.27533
-4.31829
-4.32259
-4.29159
-4.22857
-4.13063
-3.99309
-3.82284
-3.64768
-3.50191
-3.39589
-3.31703
-3.25347
-3.19948
-3.15231
-3.11034
-3.07256
-3.03831
-3.00715
-2.97875
-2.95285
-2.92924
-2.90773
-2.88813
-2.87026
-2.85397
-2.83911
-2.82552
-2.81309
-2.80169
-2.79121
-2.78156
-2.77262
-2.76434
-2.75661
-2.74936
-2.74252
-2.73601
-2.72978
-2.72376
-2.71789
-2.71211
-2.70637
-2.70062
-2.69482
-2.68892
-2.6829
-2.67673
-2.67037
-2.6638
-2.657
-2.64996
-2.64266
-2.6351
-2.62726
-2.61914
-2.61073
-2.60202
-2.593
-2.58367
-2.57401
-2.56403
-2.55372
-2.54306
-2.53204
-2.52065
-2.50887
-2.4967
-2.48413
-2.47113
-2.45769
-2.44379
-2.42941
-2.41455
-2.39918
-2.38328
-2.36684
-2.34983
-2.33225
-2.31407
-2.2953
-2.27591
-2.25589
-2.23524
-2.21395
-2.19202
-2.16944
-2.1462
-2.1223
-2.09773
-2.0725
-2.04661
-2.02006
-1.99286
-1.96501
-1.93652
-1.90738
-1.87761
-1.84723
-1.81624
-1.78467
-1.75252
-1.71983
-1.6866
-1.65288
-1.61867
-1.58402
-1.54894
-1.51347
-1.47763
-1.44145
-1.40496
-1.36819
-1.33118
-1.29395
-1.25654
-1.21898
-1.18132
-1.14359
-1.10584
-1.06809
-1.03038
-0.992763
-0.955267
-0.917933
-0.8808
-0.843906
-0.807284
-0.770969
-0.734993
-0.699389
-0.664191
-0.629434
-0.595154
-0.561386
-0.528162
-0.495515
-0.463472
-0.432061
-0.401307
-0.371231
-0.341853
-0.313191
-0.285263
-0.258083
-0.231666
-0.206026
-0.181172
-0.157114
-0.133855
-0.111402
-0.0897551
-0.0689148
-0.0488784
-0.0296404
-0.0111922
0.0064768
0.0233783
0.0395242
0.0549257
0.069594
0.0835407
0.0967784
0.109321
0.121184
0.132379
0.142918
0.152803
0.162006
0.170434
0.177984
0.184877
0.19088
0.195686
0.199295
0.201858
0.203822
0.205358
0.205041
0.224514
0.179114
0.15737
0.177701
0.232312
0.221229
0.227319
0.233353
0.238349
0.242007
0.24468
0.246251
0.246734
0.24622
0.244849
0.242668
0.239734
0.2361
0.231807
0.226874
0.221302
0.215081
0.208196
0.200629
0.192364
0.183384
0.17367
0.163205
0.151972
0.139954
0.127137
0.113507
0.0990533
0.0837648
0.0676322
0.0506466
0.0327996
0.0140838
-0.00550649
-0.0259752
-0.0473239
-0.069552
-0.0926569
-0.116635
-0.141479
-0.167184
-0.19374
-0.221135
-0.249358
-0.27839
-0.308215
-0.338812
-0.370162
-0.402242
-0.435031
-0.468505
-0.502642
-0.537416
-0.572802
-0.608774
-0.645308
-0.682376
-0.719952
-0.758008
-0.796516
-0.835445
-0.874766
-0.91445
-0.954465
-0.994782
-1.03537
-1.0762
-1.11724
-1.15845
-1.1998
-1.24128
-1.28283
-1.32445
-1.3661
-1.40775
-1.44939
-1.49097
-1.53248
-1.57389
-1.61516
-1.65629
-1.69725
-1.73802
-1.77859
-1.81892
-1.85901
-1.89884
-1.9384
-1.97766
-2.01663
-2.05529
-2.09363
-2.13163
-2.16929
-2.20659
-2.24353
-2.28011
-2.31631
-2.35213
-2.38757
-2.42261
-2.45726
-2.4915
-2.52533
-2.55875
-2.59176
-2.62434
-2.65649
-2.68821
-2.71948
-2.75031
-2.78069
-2.81062
-2.84008
-2.86907
-2.89758
-2.92561
-2.95314
-2.98016
-3.00667
-3.03265
-3.05809
-3.08299
-3.10735
-3.13115
-3.1544
-3.17708
-3.19921
-3.22079
-3.24182
-3.26232
-3.28231
-3.30181
-3.32086
-3.33949
-3.35774
-3.37568
-3.39336
-3.41085
-3.42821
-3.44553
-3.46289
-3.48036
-3.49802
-3.51597
-3.53426
-3.55298
-3.57219
-3.59196
-3.61234
-3.63339
-3.65516
-3.67771
-3.70109
-3.72536
-3.75057
-3.77679
-3.80407
-3.83248
-3.86208
-3.89295
-3.92517
-3.95885
-3.99415
-4.03133
-4.07086
-4.11354
-4.16077
-4.21506
-4.28197
-4.37318
-4.50134
-4.65642
-4.80434
-4.91745
-4.98899
-5.02397
-5.02573
-4.99155
-4.9181
-4.80949
-4.69031
-4.61722
-4.65236
-4.82468
-5.08328
-5.39796
-5.81338
-6.28833
-7.01292
-8.15284
-9.42966
-10.5362
-11.9759
-14.8108
-16.8384
-23.8478
-24.1978
-13.5196
-33.7508
-72.0624
-525.817
-1505.48
-2824.5
-3297.13
-3437.24
-4777.41
-4284.42
-5280.83
-5611.84
-5705.09
-5770.02
-5828.17
-5882.57
-5933.93
-5982.89
-6030.05
-6075.8
-6120.38
-6163.88
-6206.19
-6246.92
-6285.45
-6320.71
-6345.95
-6338.62
-6271.85
-6152.64
-6573.95
-6654.75
-6647.83
-6706.13
-6742.63
-6759.56
-6777.96
-6799.82
-6823.39
-6848.67
-6875.32
-6903.31
-6932.02
-6961.29
-6991.34
-7022.05
-7052.67
-7081.69
-7110.69
-7139.96
-7169.05
-7198.01
-7227.26
-7256.83
-7286.79
-7317.31
-7348.75
-7381.96
-7418.16
-7459.16
-7507.81
-7568.34
-7647.33
-7755.16
-7905.8
-8116.86
-8427.05
-8838.41
-9187.2
-7758.29
-1608.57
-100.743
41.8092
39.0881
37.5893
29.0232
20.3251
13.5554
8.23395
3.65382
3.77781
3.62039
3.38838
3.16692
2.98465
2.85118
2.76786
2.73113
2.73275
2.76241
2.80928
2.86285
2.91392
2.95524
2.98342
3.00046
3.01155
3.02232
3.03652
3.05523
3.07767
3.10072
3.11849
3.1271
3.12878
3.13177
3.14758
3.18818
3.26491
3.39148
3.58063
3.82281
4.07762
4.24287
8.34698
12.7707
17.7524
23.2143
28.2338
30.1699
22.9381
-17.3564
-107.7
-3593.8
-9448.69
-8753.49
-8541.3
-8321.73
-8130.92
-7975.48
-7853.2
-7756.22
-7677.52
-7611.87
-7555.49
-7505.71
-7460.63
-7418.86
-7379.39
-7341.61
-7305.12
-7269.66
-7235
-7200.85
-7167.09
-7133.75
-7100.74
-7067.34
-7034.15
-7001.56
-6969.67
-6938.53
-6908.27
-6879.26
-6851.54
-6825.39
-6801.06
-6779.85
-6764.3
-6754.77
-6736.19
-6678.59
-6582.65
-6416.41
-6372.13
-6367.25
-6351.45
-6322.61
-6286.8
-6247.36
-6205.46
-6161.68
-6116.3
-6069.41
-6020.87
-5970.39
-5917.43
-5861.2
-5800.38
-5731.7
-5646.34
-5480.89
-5312.96
-5097.7
-4165.82
-3829.92
-3364.76
-2386.25
-440.915
-63.2035
-33.4057
-24.3433
-20.7048
-22.1781
-20.282
-16.686
-14.4875
-12.2318
-10.7216
-9.44692
-8.25416
-7.25898
-6.50482
-5.92653
-5.45025
-5.07441
-4.77216
-4.55438
-4.43284
-4.38908
-4.38759
-4.39419
-4.3884
-4.36213
-4.31289
-4.24028
-4.14294
-4.02074
-3.88014
-3.73693
-3.60924
-3.50448
-3.4189
-3.34712
-3.28528
-3.231
-3.18271
-3.13935
-3.10017
-3.06464
-3.03236
-3.003
-2.97629
-2.95197
-2.92984
-2.90969
-2.89132
-2.87456
-2.85925
-2.84525
-2.83241
-2.82063
-2.80977
-2.79975
-2.79047
-2.78182
-2.77373
-2.76612
-2.75891
-2.75202
-2.7454
-2.73897
-2.73267
-2.72645
-2.72025
-2.71403
-2.70775
-2.70137
-2.69485
-2.68817
-2.6813
-2.67422
-2.66691
-2.65937
-2.65157
-2.64351
-2.63517
-2.62655
-2.61764
-2.60843
-2.59892
-2.58909
-2.57893
-2.56845
-2.55763
-2.54645
-2.5349
-2.52297
-2.51065
-2.49793
-2.48478
-2.47119
-2.45715
-2.44263
-2.42763
-2.41211
-2.39607
-2.37949
-2.36234
-2.34462
-2.32631
-2.3074
-2.28787
-2.26772
-2.24694
-2.22552
-2.20346
-2.18074
-2.15737
-2.13334
-2.10864
-2.08328
-2.05726
-2.03059
-2.00327
-1.97529
-1.94667
-1.91741
-1.88753
-1.85702
-1.82592
-1.79423
-1.76197
-1.72916
-1.69582
-1.66198
-1.62767
-1.59291
-1.55773
-1.52215
-1.48621
-1.44993
-1.41335
-1.37649
-1.33938
-1.30206
-1.26456
-1.22692
-1.18918
-1.15137
-1.11354
-1.07571
-1.03794
-1.00025
-0.962685
-0.925289
-0.888098
-0.851149
-0.814475
-0.778111
-0.74209
-0.706444
-0.671209
-0.63642
-0.602111
-0.568319
-0.535075
-0.502413
-0.470361
-0.438947
-0.408194
-0.378125
-0.348761
-0.32012
-0.292219
-0.265075
-0.238702
-0.213114
-0.188323
-0.164336
-0.141162
-0.118805
-0.0972688
-0.0765549
-0.0566611
-0.037583
-0.0193134
-0.00184332
0.0148367
0.0307359
0.0458628
0.0602251
0.0738308
0.0866886
0.0988085
0.110202
0.120882
0.130861
0.140134
0.148612
0.156075
0.162731
0.168687
0.17343
0.176698
0.178399
0.178805
0.177517
0.169224
0.146044
0.248304
0.108302
0.110313
0.0843645
0.126853
0.0891107
0.0553601
0.0456918
0.036738
0.0266862
0.0173508
0.00913037
0.00179724
-0.00521555
-0.0120293
-0.0186432
-0.0250835
-0.0313779
-0.0375403
-0.0435759
-0.049485
-0.0552659
-0.0609163
-0.0664335
-0.0718148
-0.0770575
-0.0821583
-0.0871141
-0.0919209
-0.0965747
-0.101072
-0.105409
-0.109584
-0.113594
-0.117438
-0.121114
-0.124621
-0.127958
-0.131125
-0.134121
-0.136947
-0.139601
-0.142084
-0.144396
-0.146538
-0.148509
-0.150311
-0.151945
-0.153411
-0.15471
-0.155843
-0.156811
-0.157614
-0.158254
-0.158731
-0.159045
-0.159199
-0.159191
-0.159024
-0.158698
-0.158213
-0.15757
-0.156771
-0.155814
-0.154701
-0.153431
-0.152004
-0.150419
-0.148676
-0.146773
-0.144709
-0.142483
-0.140094
-0.137541
-0.134823
-0.131939
-0.128889
-0.125675
-0.122296
-0.118753
-0.11505
-0.111187
-0.107169
-0.103
-0.0986837
-0.0942256
-0.0896311
-0.0849056
-0.0800542
-0.0750811
-0.0699894
-0.0647806
-0.0594545
-0.054009
-0.0484406
-0.042745
-0.0369178
-0.0309553
-0.0248548
-0.0186136
-0.0122319
-0.0057254
0.000862902
0.00761325
0.0145566
0.0216342
0.0288963
0.0365555
0.0452847
0.0546669
0.0589036
0.0384089
0.0158159
0.229283
-0.00474711
0.105308
0.251832
0.159129
0.186612
0.202807
0.21193
0.218343
0.223438
0.226986
0.229098
0.22982
0.22949
0.228197
0.22604
0.223095
0.21942
0.215043
0.209972
0.2042
0.197716
0.190508
0.182562
0.173865
0.164405
0.154167
0.143139
0.131305
0.118655
0.105176
0.0908587
0.0756941
0.0596733
0.0427877
0.0250292
0.00639111
-0.0131319
-0.0335431
-0.0548434
-0.0770317
-0.100105
-0.124059
-0.148887
-0.174583
-0.201137
-0.228537
-0.256769
-0.285817
-0.315662
-0.346286
-0.377667
-0.409783
-0.442613
-0.476133
-0.510319
-0.545145
-0.580588
-0.61662
-0.653215
-0.690349
-0.727992
-0.766118
-0.804697
-0.8437
-0.883096
-0.922855
-0.962948
-1.00334
-1.04401
-1.08492
-1.12604
-1.16734
-1.20878
-1.25033
-1.29197
-1.33368
-1.37541
-1.41716
-1.45888
-1.50055
-1.54215
-1.58364
-1.62501
-1.66623
-1.70728
-1.74814
-1.78879
-1.82921
-1.86939
-1.90931
-1.94895
-1.98831
-2.02736
-2.06611
-2.10453
-2.14262
-2.18036
-2.21776
-2.25478
-2.29145
-2.32773
-2.36364
-2.39916
-2.43429
-2.46902
-2.50335
-2.53726
-2.57077
-2.60386
-2.63653
-2.66876
-2.70057
-2.73193
-2.76285
-2.79332
-2.82333
-2.85289
-2.88197
-2.91058
-2.93871
-2.96634
-2.99347
-3.02008
-3.04618
-3.07174
-3.09677
-3.12126
-3.1452
-3.1686
-3.19144
-3.21374
-3.2355
-3.25672
-3.27743
-3.29764
-3.31739
-3.3367
-3.35561
-3.37418
-3.39246
-3.41051
-3.4284
-3.44621
-3.46402
-3.48191
-3.49996
-3.51828
-3.53693
-3.556
-3.57558
-3.59573
-3.61653
-3.63804
-3.66034
-3.68348
-3.70754
-3.73257
-3.75867
-3.78591
-3.81436
-3.84414
-3.87533
-3.90804
-3.9424
-3.97855
-4.01665
-4.05697
-4.09983
-4.14578
-4.19566
-4.25079
-4.31335
-4.38699
-4.47698
-4.5871
-4.71012
-4.82813
-4.92555
-4.99613
-5.04035
-5.05993
-5.05582
-5.03077
-4.99374
-4.9651
-4.97969
-5.0728
-5.26268
-5.5363
-5.88474
-6.33947
-6.90228
-7.64424
-8.62811
-9.8093
-11.0743
-12.577
-14.8336
-17.0374
-20.6232
-22.5205
-20.9868
-24.6206
-33.6809
-63.6899
-439.052
-2382.44
-3366.21
-3827.41
-4161.49
-5090.74
-5305.22
-5473.12
-5638.2
-5723.42
-5791.98
-5852.67
-5908.74
-5961.53
-6011.79
-6060.07
-6106.66
-6151.68
-6195.07
-6236.52
-6275.45
-6310.67
-6338.85
-6353.93
-6358.15
-6402.02
-6568.81
-6664.32
-6720.56
-6737.91
-6746.33
-6760.69
-6780.64
-6803.62
-6828.32
-6854.49
-6881.83
-6910.28
-6939.48
-6969.27
-6999.71
-7030.57
-7061.48
-7091.81
-7122.25
-7152.88
-7183.63
-7214.61
-7246.09
-7278.24
-7311.26
-7345.49
-7381.43
-7419.93
-7462.22
-7510.07
-7565.85
-7632.76
-7715.73
-7821.77
-7958.06
-8126.23
-8316.67
-8469.61
-9056.39
-3852.66
-139.991
-24.1478
18.1045
27.5107
26.7176
22.1711
16.8788
11.9991
7.71141
6.8302
5.89297
5.04776
4.33783
3.77128
3.34257
3.04121
2.84934
2.7464
2.71049
2.71973
2.75213
2.78771
2.81298
2.82621
2.83272
2.84154
2.86006
2.89068
2.93433
2.99085
3.05842
3.13858
3.24142
3.38669
3.6001
3.90574
4.32733
4.89105
5.61572
6.48498
7.4426
0.256004
10.9053
14.514
18.1099
21.2193
22.1355
17.191
12.4983
3.00243
-997.724
-7626.48
-8405.33
-8320.59
-8224.97
-8093.08
-7972.75
-7869.6
-7782.04
-7707.13
-7642.08
-7584.6
-7532.87
-7485.5
-7441.42
-7399.77
-7360
-7321.69
-7284.55
-7248.35
-7212.83
-7177.87
-7143.42
-7109.44
-7075.51
-7041.94
-7008.93
-6976.53
-6944.83
-6913.93
-6884.03
-6855.16
-6827.45
-6800.95
-6775.94
-6752.36
-6727.87
-6695.4
-6643.41
-6569.82
-6468.23
-6414.77
-6384.66
-6353.93
-6319.13
-6280.82
-6239.8
-6196.51
-6151.26
-6104.18
-6055.28
-6004.39
-5951.18
-5895.01
-5834.73
-5768.14
-5690.85
-5590.48
-5476
-5230.42
-4832.3
-4610.52
-4111.81
-2521.7
-427.733
-62.3076
-21.3509
-23.6124
-24.5538
-21.7065
-20.8699
-18.6185
-16.006
-14.2182
-12.3442
-10.9303
-9.70671
-8.603
-7.68047
-6.94107
-6.34304
-5.84779
-5.45141
-5.13189
-4.88945
-4.72473
-4.62271
-4.55998
-4.51354
-4.46759
-4.41355
-4.3469
-4.26565
-4.16858
-4.05616
-3.93291
-3.80836
-3.69328
-3.59276
-3.5058
-3.43002
-3.36329
-3.30398
-3.25086
-3.20298
-3.15965
-3.12034
-3.08462
-3.05213
-3.02256
-2.99565
-2.97114
-2.94881
-2.92845
-2.90986
-2.89289
-2.87736
-2.86312
-2.85006
-2.83803
-2.82694
-2.81666
-2.80711
-2.79819
-2.78981
-2.78189
-2.77434
-2.76711
-2.76011
-2.75329
-2.74657
-2.73992
-2.73327
-2.72659
-2.71983
-2.71296
-2.70594
-2.69876
-2.69138
-2.68379
-2.67598
-2.66793
-2.65963
-2.65106
-2.64222
-2.6331
-2.62368
-2.61397
-2.60395
-2.59361
-2.58294
-2.57194
-2.56059
-2.54887
-2.53678
-2.52429
-2.51141
-2.4981
-2.48435
-2.47015
-2.45548
-2.44032
-2.42465
-2.40846
-2.39173
-2.37443
-2.35656
-2.33811
-2.31905
-2.29938
-2.27909
-2.25816
-2.2366
-2.2144
-2.19155
-2.16804
-2.14387
-2.11903
-2.09354
-2.06739
-2.04059
-2.01314
-1.98504
-1.95629
-1.92691
-1.8969
-1.86627
-1.83505
-1.80324
-1.77086
-1.73794
-1.70449
-1.67055
-1.63613
-1.60127
-1.56598
-1.53031
-1.49427
-1.45789
-1.42121
-1.38426
-1.34706
-1.30966
-1.27207
-1.23435
-1.19654
-1.15866
-1.12075
-1.08286
-1.04502
-1.00727
-0.969646
-0.932197
-0.894956
-0.857959
-0.821241
-0.784836
-0.748778
-0.7131
-0.677837
-0.643024
-0.608697
-0.57489
-0.541637
-0.50897
-0.476919
-0.44551
-0.414768
-0.384716
-0.355375
-0.326764
-0.2989
-0.271801
-0.245481
-0.219954
-0.195233
-0.171327
-0.148245
-0.125993
-0.104576
-0.0839961
-0.0642516
-0.0453391
-0.0272528
-0.00998533
0.00647082
0.0221227
0.036976
0.0510356
0.0643059
0.0767918
0.0885006
0.0994433
0.109638
0.119099
0.127785
0.135459
0.142086
0.148167
0.153399
0.157202
0.159077
0.158863
0.157116
0.15271
0.136442
0.0683415
0.256832
0.00195364
0.0730843
0.150177
0.174509
0.187247
0.196313
0.203578
0.208908
0.212508
0.214173
0.214677
0.21409
0.212588
0.210257
0.207158
0.203314
0.198729
0.193394
0.1873
0.180439
0.1728
0.164377
0.155161
0.145142
0.134311
0.122657
0.11017
0.0968422
0.0826636
0.0676261
0.0517213
0.034941
0.0172772
-0.00127694
-0.0207261
-0.041073
-0.0623179
-0.0844593
-0.107494
-0.131417
-0.156222
-0.181901
-0.208445
-0.235841
-0.264076
-0.293132
-0.322991
-0.353634
-0.385039