/*--------------------------------*- C++ -*----------------------------------*\
| =========                 |                                                 |
| \\      /  F ield         | OpenFOAM: The Open Source CFD Toolbox           |
|  \\    /   O peration     | Version:  2.2.1                                 |
|   \\  /    A nd           | Web:      www.OpenFOAM.org                      |
|    \\/     M anipulation  |                                                 |
\*---------------------------------------------------------------------------*/
FoamFile
{
    version     2.0;
    format      ascii;
    class       surfaceScalarField;
    location    "1e-05";
    object      phi;
}
// * * * * * * * * * * * * * * * * * * * * * * * * * * * * * * * * * * * * * //

dimensions      [0 3 -1 0 0 0 0];

internalField   nonuniform List<scalar> 
44563
(
-8.16641e-14
9.39959e-15
-9.05502e-14
8.88612e-15
-1.02591e-13
1.20407e-14
-1.21763e-13
1.91726e-14
-1.53508e-13
3.17446e-14
-2.06499e-13
5.29914e-14
-2.92205e-13
8.57055e-14
-4.22942e-13
1.30737e-13
-6.05235e-13
1.82293e-13
-6.32418e-13
2.71831e-14
-4.03342e-13
-2.29076e-13
-3.98458e-13
-4.88385e-15
-3.35596e-13
-6.28624e-14
-2.41419e-13
-9.41766e-14
-1.736e-13
-6.78198e-14
-1.28198e-13
-4.54017e-14
-9.84855e-14
-2.97125e-14
-7.8776e-14
-1.97095e-14
-6.56707e-14
-1.31052e-14
-5.67197e-14
-8.95099e-15
-5.04176e-14
-6.3021e-15
-4.58416e-14
-4.57609e-15
-4.24164e-14
-3.42511e-15
-3.97815e-14
-2.6349e-15
-3.76892e-14
-2.0923e-15
-3.59783e-14
-1.71092e-15
-3.45273e-14
-1.45103e-15
-3.33176e-14
-1.20968e-15
-3.22902e-14
-1.02738e-15
-3.14148e-14
-8.75469e-16
-3.06677e-14
-7.47031e-16
-2.99299e-14
-7.37868e-16
-2.92486e-14
-6.81219e-16
-2.86344e-14
-6.14227e-16
-2.81387e-14
-4.95712e-16
-2.72782e-14
-8.60467e-16
-2.67985e-14
-4.79778e-16
-2.64877e-14
-3.10811e-16
-2.61997e-14
-2.87936e-16
-2.59811e-14
-2.1863e-16
-2.57629e-14
-2.18204e-16
-2.55985e-14
-1.64409e-16
-2.52661e-14
-3.32334e-16
-2.48479e-14
-4.18242e-16
-2.41723e-14
-6.75637e-16
-2.34812e-14
-6.91098e-16
-2.27784e-14
-7.02804e-16
-2.19493e-14
-8.2909e-16
-2.06946e-14
-1.25466e-15
-1.91108e-14
-1.5838e-15
-1.97103e-14
5.99472e-16
-1.33898e-14
-6.32049e-15
-2.76943e-14
1.43045e-14
-3.40233e-14
6.32903e-15
-3.04919e-14
-3.53141e-15
-2.85861e-14
-1.9058e-15
-2.7801e-14
-7.85145e-16
-2.77053e-14
-9.56855e-17
-2.79435e-14
2.38149e-16
-2.83826e-14
4.39171e-16
-2.89471e-14
5.6443e-16
-2.96115e-14
6.64476e-16
-3.03847e-14
7.73131e-16
-3.12969e-14
9.12213e-16
-3.23968e-14
1.09989e-15
-3.37523e-14
1.35555e-15
-3.54565e-14
1.70423e-15
-3.76401e-14
2.18355e-15
-4.04943e-14
2.85423e-15
-4.43147e-14
3.82041e-15
-4.96504e-14
5.3357e-15
-5.72237e-14
7.57323e-15
-6.54219e-14
8.19823e-15
-8.61749e-14
2.0753e-14
-1.04869e-13
1.86938e-14
-1.34719e-13
2.98506e-14
-1.70122e-13
3.54028e-14
-2.27721e-13
5.7599e-14
-2.68993e-13
4.12718e-14
-2.91469e-13
2.24758e-14
-1.79597e-13
-1.11872e-13
-2.22273e-13
4.26764e-14
-9.89153e-14
-1.23358e-13
-7.89121e-14
-2.00033e-14
-1.09508e-13
3.0596e-14
-7.04948e-14
-3.90132e-14
-7.30158e-14
2.52094e-15
-6.1101e-14
-1.19147e-14
-5.05016e-14
-1.05994e-14
-4.87273e-14
-1.77429e-15
-4.82237e-14
-5.03592e-16
-4.66797e-14
-1.544e-15
-4.49504e-14
-1.72935e-15
-4.48935e-14
-5.68651e-17
-4.43675e-14
-5.25966e-16
-4.46221e-14
2.54592e-16
-4.54032e-14
7.81043e-16
-4.56246e-14
2.21441e-16
-4.47061e-14
-9.18454e-16
-4.25725e-14
-2.13359e-15
-3.9569e-14
-3.00353e-15
-3.60743e-14
-3.49472e-15
-3.23314e-14
-3.74294e-15
-2.8548e-14
-3.78338e-15
-2.48359e-14
-3.71208e-15
-2.13537e-14
-3.48215e-15
-1.83765e-14
-2.97724e-15
-1.62239e-14
-2.15266e-15
-1.49892e-14
-1.2347e-15
-1.43179e-14
-6.71299e-16
-1.38272e-14
-4.9069e-16
-1.34249e-14
-4.02271e-16
-1.30813e-14
-3.43658e-16
-1.27797e-14
-3.0154e-16
-1.25109e-14
-2.68775e-16
-1.22688e-14
-2.42097e-16
-1.2049e-14
-2.19852e-16
-1.1848e-14
-2.01012e-16
-1.16631e-14
-1.84851e-16
-1.14923e-14
-1.70839e-16
-1.13337e-14
-1.58586e-16
-1.11859e-14
-1.47789e-16
-1.10477e-14
-1.38211e-16
-1.0918e-14
-1.29673e-16
-1.0796e-14
-1.2203e-16
-1.06808e-14
-1.15162e-16
-1.05718e-14
-1.08972e-16
-1.04685e-14
-1.03373e-16
-1.03702e-14
-9.82992e-17
-1.02765e-14
-9.36917e-17
-1.0187e-14
-8.95006e-17
-1.01013e-14
-8.56842e-17
-1.00191e-14
-8.22067e-17
-9.94004e-15
-7.90354e-17
-9.8639e-15
-7.61389e-17
-9.7904e-15
-7.3495e-17
-9.71932e-15
-7.10853e-17
-9.65044e-15
-6.88845e-17
-9.58357e-15
-6.68672e-17
-9.51855e-15
-6.50173e-17
-9.45523e-15
-6.33223e-17
-9.39346e-15
-6.17672e-17
-9.33313e-15
-6.03399e-17
-9.2741e-15
-5.90291e-17
-9.21628e-15
-5.78229e-17
-9.15957e-15
-5.67121e-17
-9.10388e-15
-5.56883e-17
-9.04913e-15
-5.47442e-17
-8.99525e-15
-5.38746e-17
-8.94219e-15
-5.30724e-17
-8.88986e-15
-5.23322e-17
-8.83822e-15
-5.16453e-17
-8.78722e-15
-5.10044e-17
-8.73681e-15
-5.04034e-17
-8.68698e-15
-4.98384e-17
-8.63767e-15
-4.93052e-17
-8.58888e-15
-4.87969e-17
-8.54058e-15
-4.83054e-17
-8.49275e-15
-4.78292e-17
-8.44538e-15
-4.73705e-17
-8.39845e-15
-4.69303e-17
-8.35195e-15
-4.65053e-17
-8.30585e-15
-4.60913e-17
-8.26016e-15
-4.56864e-17
-8.21486e-15
-4.52928e-17
-8.16995e-15
-4.49089e-17
-8.12542e-15
-4.45328e-17
-8.08126e-15
-4.41606e-17
-8.03747e-15
-4.37889e-17
-7.99404e-15
-4.34172e-17
-7.95099e-15
-4.30466e-17
-7.90831e-15
-4.26772e-17
-7.86601e-15
-4.23066e-17
-7.82408e-15
-4.19329e-17
-7.78252e-15
-4.15569e-17
-7.74134e-15
-4.1182e-17
-7.70054e-15
-4.08107e-17
-7.66011e-15
-4.04418e-17
-7.62005e-15
-4.00747e-17
-7.58035e-15
-3.97069e-17
-7.54101e-15
-3.93402e-17
-7.50204e-15
-3.89764e-17
-7.46343e-15
-3.86155e-17
-7.42517e-15
-3.82567e-17
-7.38727e-15
-3.78988e-17
-7.34973e-15
-3.75409e-17
-7.31254e-15
-3.71845e-17
-7.2757e-15
-3.68308e-17
-7.23922e-15
-3.64801e-17
-7.2031e-15
-3.61317e-17
-7.16731e-15
-3.57842e-17
-7.13187e-15
-3.54376e-17
-7.09677e-15
-3.50923e-17
-7.06201e-15
-3.47528e-17
-7.02759e-15
-3.44193e-17
-6.9935e-15
-3.4092e-17
-6.95974e-15
-3.37688e-17
-6.9263e-15
-3.34471e-17
-6.89319e-15
-3.31257e-17
-6.86039e-15
-3.28054e-17
-6.82791e-15
-3.24882e-17
-6.79574e-15
-3.21757e-17
-6.76388e-15
-3.18685e-17
-6.73232e-15
-3.1567e-17
-6.70105e-15
-3.12716e-17
-6.67006e-15
-3.09829e-17
-6.63936e-15
-3.07002e-17
-6.60893e-15
-3.04243e-17
-6.57878e-15
-3.0152e-17
-6.5489e-15
-2.98827e-17
-6.51928e-15
-2.96166e-17
-6.48992e-15
-2.93545e-17
-6.46082e-15
-2.9098e-17
-6.43198e-15
-2.88475e-17
-6.40338e-15
-2.86037e-17
-6.37502e-15
-2.83664e-17
-6.34689e-15
-2.81359e-17
-6.31898e-15
-2.79121e-17
-6.29128e-15
-2.76949e-17
-6.2638e-15
-2.74838e-17
-6.23652e-15
-2.72778e-17
-6.20944e-15
-2.7078e-17
-6.18255e-15
-2.68832e-17
-6.15586e-15
-2.66944e-17
-6.12934e-15
-2.65121e-17
-6.103e-15
-2.63374e-17
-6.07682e-15
-2.61715e-17
-6.0508e-15
-2.60155e-17
-6.02493e-15
-2.58703e-17
-5.9992e-15
-2.57356e-17
-5.9736e-15
-2.56102e-17
-5.94811e-15
-2.54923e-17
-5.92274e-15
-2.53806e-17
-5.89747e-15
-2.52749e-17
-5.87229e-15
-2.51758e-17
-5.84721e-15
-2.50866e-17
-5.82219e-15
-2.50082e-17
-5.79725e-15
-2.4943e-17
-5.77235e-15
-2.48928e-17
-5.74748e-15
-2.48587e-17
-5.72264e-15
-2.4842e-17
-5.69779e-15
-2.48432e-17
-5.67293e-15
-2.48627e-17
-5.64803e-15
-2.49006e-17
-5.62307e-15
-2.49569e-17
-5.59804e-15
-2.50324e-17
-5.57291e-15
-2.51286e-17
-5.54766e-15
-2.52483e-17
-5.52226e-15
-2.53951e-17
-5.49669e-15
-2.55722e-17
-5.4709e-15
-2.57851e-17
-5.44486e-15
-2.60364e-17
-5.41853e-15
-2.6331e-17
-5.39186e-15
-2.66739e-17
-5.36478e-15
-2.70708e-17
-5.33725e-15
-2.75279e-17
-5.3092e-15
-2.80519e-17
-5.28056e-15
-2.86496e-17
-5.25124e-15
-2.93283e-17
-5.22114e-15
-3.00963e-17
-5.19018e-15
-3.0964e-17
-5.15823e-15
-3.19449e-17
-5.12517e-15
-3.30571e-17
-5.09085e-15
-3.4324e-17
-5.05507e-15
-3.57756e-17
-5.01762e-15
-3.74471e-17
-4.97825e-15
-3.93778e-17
-4.93665e-15
-4.16032e-17
-4.89251e-15
-4.41544e-17
-4.84544e-15
-4.70713e-17
-4.79503e-15
-5.04194e-17
-4.74078e-15
-5.42526e-17
-4.68194e-15
-5.88309e-17
-4.61724e-15
-6.47041e-17
-4.54401e-15
-7.32218e-17
-4.45459e-15
-8.94209e-17
-4.32781e-15
-1.26775e-16
-4.1473e-15
-1.80509e-16
-3.91422e-15
-2.33089e-16
-3.66251e-15
-2.51712e-16
-3.46256e-15
-1.99942e-16
-3.29193e-15
-1.70625e-16
-3.0964e-15
-1.95527e-16
-2.80261e-15
-2.93785e-16
-5.09096e-16
2.78e-15
-4.89857e-16
3.0646e-15
-2.84594e-16
3.28104e-15
-2.16445e-16
3.50094e-15
-2.19896e-16
3.75292e-15
-2.51972e-16
3.98169e-15
-2.28771e-16
4.16927e-15
-1.87579e-16
4.31518e-15
-1.45904e-16
4.43001e-15
-1.14823e-16
4.52355e-15
-9.35317e-17
4.60247e-15
-7.89185e-17
4.6714e-15
-6.89277e-17
4.73293e-15
-6.15265e-17
4.78863e-15
-5.57045e-17
4.83968e-15
-5.10621e-17
4.88696e-15
-4.72869e-17
4.93112e-15
-4.41667e-17
4.97267e-15
-4.1554e-17
5.01201e-15
-3.93475e-17
5.04948e-15
-3.74678e-17
5.08533e-15
-3.5854e-17
5.11979e-15
-3.44562e-17
5.15303e-15
-3.32346e-17
5.18519e-15
-3.21589e-17
5.21639e-15
-3.12068e-17
5.24675e-15
-3.03592e-17
5.27635e-15
-2.96033e-17
5.30527e-15
-2.89268e-17
5.3336e-15
-2.83226e-17
5.36138e-15
-2.77822e-17
5.38868e-15
-2.73016e-17
5.41556e-15
-2.68757e-17
5.44206e-15
-2.65004e-17
5.46823e-15
-2.61721e-17
5.49412e-15
-2.58872e-17
5.51976e-15
-2.56416e-17
5.54519e-15
-2.54333e-17
5.57045e-15
-2.52577e-17
5.59556e-15
-2.51129e-17
5.62056e-15
-2.49962e-17
5.64546e-15
-2.49059e-17
5.6703e-15
-2.48402e-17
5.6951e-15
-2.47975e-17
5.71987e-15
-2.47763e-17
5.74465e-15
-2.47749e-17
5.76944e-15
-2.47917e-17
5.79427e-15
-2.48258e-17
5.81914e-15
-2.48755e-17
5.84409e-15
-2.49403e-17
5.86911e-15
-2.50191e-17
5.89422e-15
-2.51108e-17
5.91943e-15
-2.52156e-17
5.94476e-15
-2.53316e-17
5.97022e-15
-2.54582e-17
5.99581e-15
-2.55946e-17
6.02155e-15
-2.57404e-17
6.04744e-15
-2.58953e-17
6.0735e-15
-2.6059e-17
6.09973e-15
-2.62312e-17
6.12614e-15
-2.64117e-17
6.15274e-15
-2.65998e-17
6.17953e-15
-2.67948e-17
6.20653e-15
-2.69963e-17
6.23374e-15
-2.72036e-17
6.26116e-15
-2.74159e-17
6.28879e-15
-2.76345e-17
6.31666e-15
-2.78577e-17
6.34475e-15
-2.8086e-17
6.37307e-15
-2.83192e-17
6.40163e-15
-2.85575e-17
6.43044e-15
-2.8801e-17
6.45949e-15
-2.90499e-17
6.4888e-15
-2.93048e-17
6.51836e-15
-2.95653e-17
6.5482e-15
-2.98318e-17
6.5783e-15
-3.01032e-17
6.60867e-15
-3.03791e-17
6.63933e-15
-3.06587e-17
6.67027e-15
-3.0941e-17
6.7015e-15
-3.12276e-17
6.73302e-15
-3.15168e-17
6.76483e-15
-3.18097e-17
6.79693e-15
-3.21069e-17
6.82934e-15
-3.24085e-17
6.86205e-15
-3.27148e-17
6.89507e-15
-3.30256e-17
6.9284e-15
-3.33406e-17
6.96206e-15
-3.36597e-17
6.99604e-15
-3.39824e-17
7.03035e-15
-3.43083e-17
7.06498e-15
-3.46372e-17
7.09995e-15
-3.49683e-17
7.13525e-15
-3.53008e-17
7.17089e-15
-3.5636e-17
7.20687e-15
-3.59722e-17
7.24318e-15
-3.63107e-17
7.27984e-15
-3.66522e-17
7.31684e-15
-3.69972e-17
7.35419e-15
-3.73457e-17
7.39189e-15
-3.76973e-17
7.42994e-15
-3.80514e-17
7.46835e-15
-3.84066e-17
7.50712e-15
-3.87629e-17
7.54625e-15
-3.91197e-17
7.58573e-15
-3.9477e-17
7.62556e-15
-3.98354e-17
7.66576e-15
-4.01947e-17
7.70631e-15
-4.05544e-17
7.74723e-15
-4.09158e-17
7.78851e-15
-4.12772e-17
7.83015e-15
-4.16394e-17
7.87215e-15
-4.20026e-17
7.91451e-15
-4.23672e-17
7.95724e-15
-4.27331e-17
8.00034e-15
-4.31001e-17
8.0438e-15
-4.34682e-17
8.08764e-15
-4.38375e-17
8.13185e-15
-4.42087e-17
8.17644e-15
-4.4583e-17
8.2214e-15
-4.49619e-17
8.26676e-15
-4.53466e-17
8.3125e-15
-4.57377e-17
8.35864e-15
-4.61383e-17
8.4052e-15
-4.65478e-17
8.45217e-15
-4.69683e-17
8.49957e-15
-4.74018e-17
8.54743e-15
-4.78503e-17
8.59575e-15
-4.83161e-17
8.64455e-15
-4.88024e-17
8.69387e-15
-4.93122e-17
8.74373e-15
-4.98503e-17
8.79415e-15
-5.04213e-17
8.84519e-15
-5.10299e-17
8.89687e-15
-5.16816e-17
8.94925e-15
-5.23811e-17
9.00239e-15
-5.31332e-17
9.05633e-15
-5.39452e-17
9.11116e-15
-5.48222e-17
9.16693e-15
-5.57721e-17
9.22373e-15
-5.68028e-17
9.28165e-15
-5.79223e-17
9.34079e-15
-5.91393e-17
9.40125e-15
-6.04635e-17
9.46316e-15
-6.19059e-17
9.52663e-15
-6.34776e-17
9.59182e-15
-6.51914e-17
9.65888e-15
-6.70604e-17
9.72798e-15
-6.90991e-17
9.79931e-15
-7.13239e-17
9.87306e-15
-7.37532e-17
9.94947e-15
-7.64074e-17
1.00288e-14
-7.9309e-17
1.01113e-14
-8.24831e-17
1.01972e-14
-8.59584e-17
1.0287e-14
-8.97669e-17
1.03809e-14
-9.39468e-17
1.04795e-14
-9.85419e-17
1.05831e-14
-1.03602e-16
1.06922e-14
-1.09187e-16
1.08076e-14
-1.15364e-16
1.09298e-14
-1.22215e-16
1.10597e-14
-1.29836e-16
1.1198e-14
-1.38345e-16
1.13459e-14
-1.4789e-16
1.15045e-14
-1.58652e-16
1.16754e-14
-1.70864e-16
1.18602e-14
-1.84826e-16
1.20611e-14
-2.0093e-16
1.22808e-14
-2.19702e-16
1.25227e-14
-2.41863e-16
1.27911e-14
-2.68444e-16
1.30922e-14
-3.01087e-16
1.34353e-14
-3.43035e-16
1.38367e-14
-4.01396e-16
1.43261e-14
-4.89408e-16
1.49942e-14
-6.68164e-16
1.62218e-14
-1.22757e-15
1.83654e-14
-2.14361e-15
2.13345e-14
-2.96908e-15
2.48101e-14
-3.47564e-15
2.85166e-14
-3.70645e-15
3.22952e-14
-3.77862e-15
3.6031e-14
-3.7358e-15
3.95322e-14
-3.50122e-15
4.25279e-14
-2.99571e-15
4.4682e-14
-2.15412e-15
4.56057e-14
-9.23669e-16
4.54025e-14
2.03238e-16
4.4633e-14
7.69442e-16
4.44428e-14
1.90243e-16
4.50059e-14
-5.63149e-16
4.49807e-14
2.51893e-17
4.66521e-14
-1.67137e-15
4.82468e-14
-1.59466e-15
4.88172e-14
-5.7042e-16
5.05825e-14
-1.76535e-15
6.10532e-14
-1.04707e-14
7.2961e-14
-1.19077e-14
7.02062e-14
2.75478e-15
1.08965e-13
-3.8759e-14
7.88698e-14
3.00954e-14
9.78318e-14
-1.89621e-14
2.22183e-13
-1.24351e-13
1.78919e-13
4.3264e-14
2.91437e-13
-1.12518e-13
2.69051e-13
2.23858e-14
2.27437e-13
4.1614e-14
1.69743e-13
5.76947e-14
1.34292e-13
3.54504e-14
1.04533e-13
2.9759e-14
8.58358e-14
1.86974e-14
6.51212e-14
2.07146e-14
5.69542e-14
8.167e-15
4.94227e-14
7.53144e-15
4.4113e-14
5.30975e-15
4.03075e-14
3.8055e-15
3.74614e-14
2.84607e-15
3.52816e-14
2.17987e-15
3.35778e-14
1.70371e-15
3.22203e-14
1.3575e-15
3.11165e-14
1.10387e-15
3.01986e-14
9.17903e-16
2.94183e-14
7.80318e-16
2.87452e-14
6.7302e-16
2.81708e-14
5.74408e-16
2.772e-14
4.50822e-16
2.74686e-14
2.51361e-16
2.75473e-14
-7.86299e-17
2.83099e-14
-7.62663e-16
3.01853e-14
-1.87538e-15
3.36602e-14
-3.47488e-15
2.72478e-14
6.41241e-15
1.28529e-14
1.43949e-14
1.92209e-14
-6.36801e-15
1.86569e-14
5.64013e-16
2.02648e-14
-1.60787e-15
2.15226e-14
-1.25787e-15
2.23438e-14
-8.21207e-16
2.30316e-14
-6.87737e-16
2.37018e-14
-6.70241e-16
2.4355e-14
-6.53214e-16
2.47413e-14
-3.86274e-16
2.50511e-14
-3.09789e-16
2.51899e-14
-1.38757e-16
2.53827e-14
-1.92816e-16
2.55743e-14
-1.91637e-16
2.57487e-14
-1.74383e-16
2.60288e-14
-2.80101e-16
2.64765e-14
-4.47671e-16
2.72948e-14
-8.18353e-16
2.77574e-14
-4.62593e-16
2.83245e-14
-5.67059e-16
2.89735e-14
-6.49027e-16
2.96727e-14
-6.9916e-16
3.03769e-14
-7.04267e-16
3.12069e-14
-8.29981e-16
3.21828e-14
-9.75847e-16
3.33372e-14
-1.15441e-15
3.47307e-14
-1.39357e-15
3.63772e-14
-1.64645e-15
3.84015e-14
-2.02434e-15
4.09653e-14
-2.56374e-15
4.43225e-14
-3.35726e-15
4.88427e-14
-4.52017e-15
5.5109e-14
-6.26632e-15
6.40466e-14
-8.93758e-15
7.71697e-14
-1.31231e-14
9.68689e-14
-1.96992e-14
1.26424e-13
-2.95556e-14
1.71552e-13
-4.51274e-14
2.39175e-13
-6.76232e-14
3.34899e-13
-9.57235e-14
4.16116e-13
-8.12171e-14
4.4172e-13
-2.56047e-14
6.57559e-13
-2.15839e-13
6.42353e-13
1.52056e-14
4.40992e-13
2.01361e-13
2.99114e-13
1.41878e-13
2.08706e-13
9.04082e-14
1.54046e-13
5.46598e-14
1.21746e-13
3.22999e-14
1.02267e-13
1.94792e-14
8.9955e-14
1.23119e-14
8.0782e-14
9.17289e-15
9.77518e-15
-1.04131e-15
9.23229e-15
-1.37213e-15
1.61028e-14
-1.39057e-15
2.31719e-14
-1.05562e-15
3.03465e-14
-5.20506e-16
3.77252e-14
-5.73761e-17
4.54173e-14
2.41739e-16
5.31807e-14
4.02845e-16
6.08368e-14
4.76121e-16
6.83266e-14
5.0122e-16
7.56395e-14
5.0322e-16
8.27746e-14
4.96239e-16
8.97309e-14
4.8733e-16
9.65056e-14
4.79338e-16
1.03096e-13
4.72958e-16
1.09497e-13
4.67974e-16
1.15707e-13
4.63891e-16
1.21721e-13
4.60225e-16
1.27538e-13
4.56582e-16
1.33156e-13
4.52682e-16
1.38575e-13
4.48341e-16
1.43796e-13
4.43442e-16
1.4882e-13
4.37926e-16
1.53649e-13
4.31768e-16
1.58285e-13
4.24969e-16
1.62732e-13
4.17546e-16
1.66992e-13
4.09527e-16
1.71069e-13
4.00941e-16
1.74966e-13
3.91823e-16
1.78687e-13
3.82208e-16
1.82237e-13
3.7213e-16
1.85619e-13
3.61622e-16
1.88837e-13
3.50715e-16
1.91895e-13
3.39442e-16
1.94798e-13
3.27828e-16
1.9755e-13
3.15904e-16
2.00155e-13
3.03694e-16
2.02617e-13
2.91223e-16
2.0494e-13
2.78514e-16
2.07127e-13
2.65587e-16
2.09184e-13
2.52464e-16
2.11112e-13
2.39163e-16
2.12917e-13
2.25701e-16
2.14601e-13
2.12094e-16
2.16168e-13
1.98358e-16
2.1762e-13
1.84506e-16
2.18961e-13
1.70552e-16
2.20194e-13
1.56507e-16
2.21322e-13
1.42383e-16
2.22346e-13
1.28188e-16
2.23269e-13
1.13934e-16
2.24093e-13
9.96294e-17
2.2482e-13
8.52817e-17
2.25452e-13
7.08989e-17
2.2599e-13
5.64886e-17
2.26436e-13
4.20578e-17
2.26791e-13
2.76132e-17
2.27055e-13
1.31614e-17
2.27229e-13
-1.29096e-18
2.27314e-13
-1.57375e-17
2.27309e-13
-3.01715e-17
2.27216e-13
-4.45866e-17
2.27034e-13
-5.89757e-17
2.26761e-13
-7.3332e-17
2.26399e-13
-8.76481e-17
2.25945e-13
-1.01916e-16
2.254e-13
-1.16129e-16
2.24761e-13
-1.30277e-16
2.24027e-13
-1.44351e-16
2.23197e-13
-1.58344e-16
2.22268e-13
-1.72243e-16
2.21239e-13
-1.8604e-16
2.20108e-13
-1.99722e-16
2.18871e-13
-2.13279e-16
2.17527e-13
-2.26698e-16
2.16073e-13
-2.39967e-16
2.14505e-13
-2.53071e-16
2.1282e-13
-2.65998e-16
2.11016e-13
-2.7873e-16
2.09088e-13
-2.91254e-16
2.07034e-13
-3.0355e-16
2.04849e-13
-3.156e-16
2.02529e-13
-3.27385e-16
2.00071e-13
-3.38881e-16
1.9747e-13
-3.50066e-16
1.94722e-13
-3.60912e-16
1.91824e-13
-3.71391e-16
1.8877e-13
-3.81472e-16
1.85557e-13
-3.91121e-16
1.8218e-13
-4.003e-16
1.78634e-13
-4.0897e-16
1.74917e-13
-4.1709e-16
1.71023e-13
-4.24617e-16
1.6695e-13
-4.31507e-16
1.62692e-13
-4.37715e-16
1.58247e-13
-4.43196e-16
1.53612e-13
-4.47903e-16
1.48783e-13
-4.51788e-16
1.43759e-13
-4.54797e-16
1.38537e-13
-4.56879e-16
1.33116e-13
-4.57969e-16
1.27495e-13
-4.58011e-16
1.21676e-13
-4.57103e-16
1.15658e-13
-4.55512e-16
1.09445e-13
-4.53215e-16
1.0304e-13
-4.56132e-16
9.64536e-14
-4.72817e-16
8.96949e-14
-5.3647e-16
8.27965e-14
-6.72087e-16
7.57594e-14
-8.7738e-16
6.85683e-14
-1.05021e-15
6.11371e-14
-1.11708e-15
5.35112e-14
-8.40505e-16
4.55569e-14
9.12318e-18
3.7363e-14
8.28873e-16
2.98561e-14
1.14506e-15
2.28397e-14
9.71869e-16
1.59444e-14
9.17862e-15
2.67238e-14
-2.13237e-13
4.63104e-14
-3.16852e-13
6.50534e-14
-3.9307e-13
8.04023e-14
-4.46392e-13
9.14364e-14
-4.82434e-13
9.82451e-14
-5.06001e-13
1.01349e-13
-5.20784e-13
1.01244e-13
-5.29414e-13
9.83948e-14
-5.33938e-13
9.32314e-14
-5.35897e-13
8.61906e-14
-5.36446e-13
7.76891e-14
-5.36355e-13
6.81288e-14
-5.36107e-13
5.7822e-14
-5.35878e-13
4.69992e-14
-5.35693e-13
3.58469e-14
-5.35515e-13
2.44695e-14
-5.35234e-13
1.29219e-14
-5.34791e-13
1.23571e-15
-5.3419e-13
-1.05589e-14
-5.33497e-13
-2.24182e-14
-5.3282e-13
-3.42761e-14
-5.32282e-13
-4.60065e-14
-5.32019e-13
-5.74794e-14
-5.32062e-13
-6.81799e-14
-5.3276e-13
-7.76513e-14
-5.33942e-13
-8.57581e-14
-5.35069e-13
-9.24776e-14
-5.35672e-13
-9.75676e-14
-5.35427e-13
-1.00646e-13
-5.33677e-13
-1.01285e-13
-5.29343e-13
-9.86023e-14
-5.2134e-13
-9.14655e-14
-5.07866e-13
-7.94128e-14
-4.85584e-13
-6.31233e-14
-4.50018e-13
-4.43145e-14
-3.96203e-13
-2.54321e-14
-3.19221e-13
-2.14842e-13
9.55653e-15
-6.62509e-16
9.91947e-15
-5.79381e-16
1.04152e-14
-7.15572e-16
1.11564e-14
-9.93235e-16
1.18376e-14
-9.09912e-16
1.23726e-14
-7.22561e-16
1.27778e-14
-5.51084e-16
1.30956e-14
-4.32702e-16
1.33562e-14
-3.54094e-16
1.3582e-14
-3.04672e-16
1.37835e-14
-2.70475e-16
1.39661e-14
-2.44087e-16
1.41322e-14
-2.21883e-16
1.42845e-14
-2.03302e-16
1.44251e-14
-1.8794e-16
1.45562e-14
-1.7528e-16
1.46794e-14
-1.64764e-16
1.4796e-14
-1.5593e-16
1.49069e-14
-1.48418e-16
1.5013e-14
-1.41958e-16
1.51149e-14
-1.36348e-16
1.52131e-14
-1.31431e-16
1.53081e-14
-1.27093e-16
1.54001e-14
-1.23245e-16
1.54895e-14
-1.19815e-16
1.55767e-14
-1.16753e-16
1.56618e-14
-1.14011e-16
1.5745e-14
-1.11561e-16
1.58266e-14
-1.09371e-16
1.59067e-14
-1.07421e-16
1.59855e-14
-1.05693e-16
1.60632e-14
-1.04165e-16
1.61399e-14
-1.02825e-16
1.62156e-14
-1.01657e-16
1.62906e-14
-1.00649e-16
1.6365e-14
-9.9787e-17
1.64388e-14
-9.90595e-17
1.65121e-14
-9.84566e-17
1.65851e-14
-9.79693e-17
1.66578e-14
-9.75896e-17
1.67303e-14
-9.731e-17
1.68026e-14
-9.71239e-17
1.68748e-14
-9.7025e-17
1.69471e-14
-9.70075e-17
1.70193e-14
-9.7066e-17
1.70917e-14
-9.71954e-17
1.71642e-14
-9.73914e-17
1.72369e-14
-9.76497e-17
1.73099e-14
-9.7965e-17
1.73831e-14
-9.83364e-17
1.74566e-14
-9.87571e-17
1.75305e-14
-9.92247e-17
1.76048e-14
-9.9736e-17
1.76795e-14
-1.00288e-16
1.77546e-14
-1.0088e-16
1.78302e-14
-1.01508e-16
1.79064e-14
-1.02172e-16
1.7983e-14
-1.0287e-16
1.80602e-14
-1.03601e-16
1.81379e-14
-1.04363e-16
1.82163e-14
-1.05153e-16
1.82953e-14
-1.0597e-16
1.83749e-14
-1.06811e-16
1.84552e-14
-1.07678e-16
1.85361e-14
-1.08566e-16
1.86177e-14
-1.09475e-16
1.87001e-14
-1.10405e-16
1.87831e-14
-1.11356e-16
1.88669e-14
-1.12327e-16
1.89514e-14
-1.13319e-16
1.90367e-14
-1.14333e-16
1.91228e-14
-1.15368e-16
1.92096e-14
-1.16424e-16
1.92973e-14
-1.175e-16
1.93858e-14
-1.18594e-16
1.94751e-14
-1.19705e-16
1.95653e-14
-1.2083e-16
1.96563e-14
-1.21972e-16
1.97482e-14
-1.23126e-16
1.9841e-14
-1.24294e-16
1.99346e-14
-1.25477e-16
2.00292e-14
-1.26674e-16
2.01247e-14
-1.27886e-16
2.02211e-14
-1.29114e-16
2.03184e-14
-1.30356e-16
2.04166e-14
-1.31614e-16
2.05159e-14
-1.32886e-16
2.06161e-14
-1.34172e-16
2.07172e-14
-1.3547e-16
2.08194e-14
-1.36778e-16
2.09225e-14
-1.38094e-16
2.10266e-14
-1.39417e-16
2.11317e-14
-1.40748e-16
2.12378e-14
-1.42087e-16
2.1345e-14
-1.43434e-16
2.14531e-14
-1.44791e-16
2.15623e-14
-1.46159e-16
2.16725e-14
-1.47538e-16
2.17837e-14
-1.48927e-16
2.1896e-14
-1.50323e-16
2.20093e-14
-1.51726e-16
2.21237e-14
-1.53133e-16
2.22391e-14
-1.54543e-16
2.23556e-14
-1.55956e-16
2.24732e-14
-1.57373e-16
2.25918e-14
-1.58791e-16
2.27114e-14
-1.60215e-16
2.28321e-14
-1.61641e-16
2.29539e-14
-1.63071e-16
2.30768e-14
-1.64506e-16
2.32007e-14
-1.65947e-16
2.33258e-14
-1.67392e-16
2.34519e-14
-1.68843e-16
2.35791e-14
-1.703e-16
2.37074e-14
-1.71763e-16
2.38368e-14
-1.73235e-16
2.39673e-14
-1.74719e-16
2.40989e-14
-1.7622e-16
2.42317e-14
-1.77742e-16
2.43657e-14
-1.79287e-16
2.45008e-14
-1.80865e-16
2.46371e-14
-1.82476e-16
2.47747e-14
-1.84127e-16
2.49136e-14
-1.85824e-16
2.50538e-14
-1.87575e-16
2.51953e-14
-1.89389e-16
2.53383e-14
-1.91274e-16
2.54827e-14
-1.93244e-16
2.56287e-14
-1.95312e-16
2.57764e-14
-1.97493e-16
2.59258e-14
-1.99804e-16
2.6077e-14
-2.02263e-16
2.62302e-14
-2.04891e-16
2.63856e-14
-2.07705e-16
2.65432e-14
-2.10728e-16
2.67032e-14
-2.13983e-16
2.68659e-14
-2.17496e-16
2.70314e-14
-2.21294e-16
2.72e-14
-2.25408e-16
2.73719e-14
-2.29868e-16
2.75475e-14
-2.34713e-16
2.7727e-14
-2.3998e-16
2.79108e-14
-2.45713e-16
2.80993e-14
-2.51958e-16
2.82929e-14
-2.58763e-16
2.8492e-14
-2.66184e-16
2.86972e-14
-2.7428e-16
2.8909e-14
-2.83117e-16
2.9128e-14
-2.92768e-16
2.93549e-14
-3.03315e-16
2.95904e-14
-3.14847e-16
2.98354e-14
-3.27463e-16
3.00907e-14
-3.41276e-16
3.03574e-14
-3.56415e-16
3.06364e-14
-3.73029e-16
3.09292e-14
-3.91285e-16
3.1237e-14
-4.11382e-16
3.15613e-14
-4.33548e-16
3.1904e-14
-4.58051e-16
3.2267e-14
-4.85209e-16
3.26525e-14
-5.15405e-16
3.30633e-14
-5.49102e-16
3.35023e-14
-5.8687e-16
3.3973e-14
-6.29422e-16
3.44798e-14
-6.77664e-16
3.50278e-14
-7.32767e-16
3.56231e-14
-7.96283e-16
3.62737e-14
-8.70322e-16
3.69897e-14
-9.57867e-16
3.77846e-14
-1.06334e-15
3.86773e-14
-1.19373e-15
3.96951e-14
-1.36085e-15
4.08797e-14
-1.58605e-15
4.23048e-14
-1.91452e-15
4.40892e-14
-2.45256e-15
4.61995e-14
-3.33781e-15
4.8549e-14
-4.49314e-15
5.11844e-14
-5.60448e-15
5.41365e-14
-6.42772e-15
5.73464e-14
-6.91638e-15
6.069e-14
-7.12224e-15
6.40229e-14
-7.06873e-15
6.72331e-14
-6.71135e-15
7.02293e-14
-5.99193e-15
7.29739e-14
-4.8987e-15
7.56308e-14
-3.58064e-15
7.83167e-14
-2.4826e-15
8.11924e-14
-2.10631e-15
8.40707e-14
-2.68802e-15
8.71398e-14
-3.63223e-15
9.17759e-14
-4.61091e-15
9.63252e-14
-6.22063e-15
1.02248e-13
-7.51774e-15
1.1126e-13
-9.58187e-15
1.24056e-13
-1.45621e-14
1.34667e-13
-2.10813e-14
1.46381e-13
-2.36214e-14
1.7548e-13
-2.63447e-14
1.7525e-13
-3.8529e-14
2.3576e-13
-3.04144e-14
2.96724e-13
-7.99262e-14
2.76169e-13
-1.03796e-13
3.50489e-13
-3.10567e-14
3.3386e-13
-9.58889e-14
3.55101e-13
1.14465e-15
3.29703e-13
6.70124e-14
3.10205e-13
7.71926e-14
2.99858e-13
4.57971e-14
2.48462e-13
8.11557e-14
1.96083e-13
7.10764e-14
1.64005e-13
5.27922e-14
1.46336e-13
2.58361e-14
1.33446e-13
2.0421e-14
1.23305e-13
1.54515e-14
1.1466e-13
1.24505e-14
1.07507e-13
9.99899e-15
1.01647e-13
8.03946e-15
9.68567e-14
6.49408e-15
9.29253e-14
5.28892e-15
8.96649e-14
4.36428e-15
8.6916e-14
3.6668e-15
8.45482e-14
3.14809e-15
8.24568e-14
2.76439e-15
8.05558e-14
2.47545e-15
7.8763e-14
2.2436e-15
7.69743e-14
2.04002e-15
7.5032e-14
1.86372e-15
7.24827e-14
1.78662e-15
6.83241e-14
2.28325e-15
5.92863e-14
5.56292e-15
4.95937e-14
1.6105e-14
3.89347e-14
2.50539e-14
4.15158e-14
-8.94903e-15
5.25159e-14
-1.04361e-14
5.91512e-14
-8.24314e-15
6.23115e-14
-4.41823e-15
6.47605e-14
-3.27013e-15
6.66479e-14
-2.57517e-15
6.81265e-14
-2.14882e-15
6.93109e-14
-1.83769e-15
7.04446e-14
-1.51993e-15
7.14186e-14
-1.28376e-15
7.2406e-14
-1.12615e-15
7.33132e-14
-1.10001e-15
7.42522e-14
-1.13066e-15
7.52879e-14
-1.21009e-15
7.64033e-14
-1.39549e-15
7.76392e-14
-1.68362e-15
7.87987e-14
-1.97785e-15
8.03871e-14
-2.05097e-15
8.20189e-14
-2.19886e-15
8.37979e-14
-2.42803e-15
8.57801e-14
-2.68137e-15
8.80552e-14
-2.97931e-15
9.06153e-14
-3.39013e-15
9.3557e-14
-3.91757e-15
9.6979e-14
-4.57636e-15
1.00989e-13
-5.40363e-15
1.05794e-13
-6.45102e-15
1.1161e-13
-7.84072e-15
1.18775e-13
-9.7288e-15
1.27749e-13
-1.23312e-14
1.39184e-13
-1.59553e-14
1.53973e-13
-2.10551e-14
1.7343e-13
-2.83949e-14
1.99058e-13
-3.8751e-14
2.32469e-13
-5.31097e-14
2.75943e-13
-7.30305e-14
3.30122e-13
-9.93056e-14
3.89059e-13
-1.26561e-13
4.25167e-13
-1.31831e-13
4.42038e-13
-9.80881e-14
4.45527e-13
-2.90941e-14
2.91378e-13
-6.16886e-14
3.91102e-13
-8.4519e-14
4.54663e-13
1.378e-13
4.19855e-13
1.76686e-13
3.69631e-13
1.40633e-13
3.22854e-13
1.01436e-13
2.84141e-13
7.10129e-14
2.54134e-13
4.94864e-14
2.31243e-13
3.5203e-14
2.71795e-14
-2.32962e-13
2.70071e-14
-2.55816e-13
3.48937e-14
-2.85899e-13
4.92559e-14
-3.25108e-13
7.0954e-14
-3.73056e-13
1.00939e-13
-4.25137e-13
1.37786e-13
-4.64423e-13
1.70023e-13
-4.18355e-13
1.36225e-13
-3.15472e-13
-7.57003e-14
-4.65268e-13
-7.928e-14
-4.55401e-13
-1.47499e-14
-4.24872e-13
-9.33918e-14
-3.87165e-13
-1.31884e-13
-3.29214e-13
-1.2577e-13
-2.75949e-13
-9.86664e-14
-2.33184e-13
-7.24781e-14
-2.00455e-13
-5.24386e-14
-1.75528e-13
-3.80322e-14
-1.56558e-13
-2.79205e-14
-1.42009e-13
-2.08511e-14
-1.30701e-13
-1.58843e-14
-1.21772e-13
-1.23541e-14
-1.14598e-13
-9.8092e-15
-1.08739e-13
-7.95117e-15
-1.03875e-13
-6.57475e-15
-9.97946e-14
-5.53139e-15
-9.62987e-14
-4.70561e-15
-9.32797e-14
-4.04635e-15
-9.06379e-14
-3.51728e-15
-8.82793e-14
-3.10568e-15
-8.621e-14
-2.80716e-15
-8.4336e-14
-2.55516e-15
-8.26189e-14
-2.33135e-15
-8.09324e-14
-2.18224e-15
-7.96832e-14
-2.10961e-15
-7.83479e-14
-1.81508e-15
-7.71128e-14
-1.54596e-15
-7.60167e-14
-1.38403e-15
-7.49633e-14
-1.27199e-15
-7.39668e-14
-1.21474e-15
-7.2898e-14
-1.23325e-15
-7.18435e-14
-1.3868e-15
-7.06412e-14
-1.62056e-15
-6.93871e-14
-1.92976e-15
-6.78474e-14
-2.23072e-15
-6.59065e-14
-2.64376e-15
-6.34143e-14
-3.32125e-15
-6.02209e-14
-4.4481e-15
-5.35278e-14
-8.27685e-15
-4.25534e-14
-1.03749e-14
-4.00297e-14
-8.84421e-15
-5.05876e-14
2.48625e-14
-6.01799e-14
1.59213e-14
-6.91358e-14
5.42452e-15
-7.32268e-14
2.18516e-15
-7.57247e-14
1.71278e-15
-7.76255e-14
1.80512e-15
-7.93791e-14
1.99172e-15
-8.11424e-14
2.20248e-15
-8.30181e-14
2.44013e-15
-8.50878e-14
2.7342e-15
-8.74375e-14
3.12284e-15
-9.0172e-14
3.64669e-15
-9.3422e-14
4.34984e-15
-9.73474e-14
5.28095e-15
-1.02137e-13
6.49366e-15
-1.08001e-13
8.04811e-15
-1.15166e-13
1.0019e-14
-1.23831e-13
1.24856e-14
-1.34003e-13
1.5507e-14
-1.46936e-13
2.05067e-14
-1.6467e-13
2.59321e-14
-1.96857e-13
5.29396e-14
-2.49165e-13
7.10027e-14
-3.00437e-13
8.1122e-14
-3.1101e-13
4.59758e-14
-3.30742e-13
7.73313e-14
-3.57155e-13
6.7685e-14
-3.35254e-13
5.74311e-16
-3.5099e-13
-9.61358e-14
-2.76781e-13
-3.15326e-14
-2.9694e-13
-1.03198e-13
-2.36657e-13
-8.02863e-14
-1.75562e-13
-3.04991e-14
-1.75815e-13
-3.87603e-14
-1.46647e-13
-2.66468e-14
-1.3476e-13
-2.38017e-14
-1.24154e-13
-2.12055e-14
-1.1132e-13
-1.4609e-14
-1.02239e-13
-9.58451e-15
-9.62602e-14
-7.5225e-15
-9.17245e-14
-6.26497e-15
-8.71212e-14
-4.66022e-15
-8.4025e-14
-3.62217e-15
-8.11261e-14
-2.64429e-15
-7.82699e-14
-2.07516e-15
-7.55884e-14
-2.45997e-15
-7.29437e-14
-3.56322e-15
-7.01939e-14
-4.88341e-15
-6.72103e-14
-5.98713e-15
-6.39955e-14
-6.70949e-15
-6.0666e-14
-7.07247e-15
-5.73207e-14
-7.12864e-15
-5.41087e-14
-6.9241e-15
-5.1154e-14
-6.43687e-15
-4.85163e-14
-5.61495e-15
-4.61652e-14
-4.50372e-15
-4.40537e-14
-3.34623e-15
-4.22675e-14
-2.45746e-15
-4.08415e-14
-1.91676e-15
-3.96569e-14
-1.5869e-15
-3.86396e-14
-1.36094e-15
-3.77478e-14
-1.19335e-15
-3.69539e-14
-1.06265e-15
-3.6239e-14
-9.56966e-16
-3.55896e-14
-8.69274e-16
-3.49955e-14
-7.95127e-16
-3.44488e-14
-7.31531e-16
-3.39433e-14
-6.76369e-16
-3.34738e-14
-6.28085e-16
-3.3036e-14
-5.85504e-16
-3.26265e-14
-5.47722e-16
-3.22421e-14
-5.14023e-16
-3.18803e-14
-4.83838e-16
-3.15388e-14
-4.56693e-16
-3.12155e-14
-4.32208e-16
-3.09089e-14
-4.1006e-16
-3.06172e-14
-3.89977e-16
-3.03391e-14
-3.71731e-16
-3.00735e-14
-3.55129e-16
-2.98192e-14
-3.40003e-16
-2.95752e-14
-3.26203e-16
-2.93406e-14
-3.13606e-16
-2.91147e-14
-3.02107e-16
-2.88966e-14
-2.91608e-16
-2.86856e-14
-2.82014e-16
-2.84813e-14
-2.73239e-16
-2.82829e-14
-2.65205e-16
-2.80901e-14
-2.5784e-16
-2.79023e-14
-2.51086e-16
-2.77192e-14
-2.44889e-16
-2.75404e-14
-2.39195e-16
-2.73654e-14
-2.33959e-16
-2.71941e-14
-2.29142e-16
-2.70261e-14
-2.24706e-16
-2.68612e-14
-2.20617e-16
-2.66991e-14
-2.16843e-16
-2.65396e-14
-2.13358e-16
-2.63826e-14
-2.10138e-16
-2.62277e-14
-2.07156e-16
-2.6075e-14
-2.04382e-16
-2.59242e-14
-2.01795e-16
-2.57752e-14
-1.99375e-16
-2.5628e-14
-1.97101e-16
-2.54824e-14
-1.94948e-16
-2.53383e-14
-1.92894e-16
-2.51956e-14
-1.90924e-16
-2.50544e-14
-1.89031e-16
-2.49146e-14
-1.87209e-16