/*--------------------------------*- C++ -*----------------------------------*\
| =========                 |                                                 |
| \\      /  F ield         | OpenFOAM: The Open Source CFD Toolbox           |
|  \\    /   O peration     | Version:  2.2.1                                 |
|   \\  /    A nd           | Web:      www.OpenFOAM.org                      |
|    \\/     M anipulation  |                                                 |
\*---------------------------------------------------------------------------*/
FoamFile
{
    version     2.0;
    format      ascii;
    class       volVectorField;
    location    "1e-05";
    object      U;
}
// * * * * * * * * * * * * * * * * * * * * * * * * * * * * * * * * * * * * * //

dimensions      [0 1 -1 0 0 0 0];

internalField   nonuniform List<vector> 
22464
(
(-0.0350892 0.200178 2.46127e-44)
(-0.034993 0.211919 -2.43968e-44)
(-0.0413428 0.238834 0)
(-0.0538053 0.273763 5.30914e-44)
(-0.0751382 0.331345 3.78393e-43)
(-0.111296 0.428063 9.10105e-43)
(-0.168356 0.597838 4.75475e-43)
(-0.247869 0.92178 1.38314e-42)
(-0.301594 1.51191 0)
(0.0200119 1.61651 2.33759e-41)
(0.171854 1.11727 9.95354e-45)
(-0.039587 0.947415 -5.63004e-42)
(-0.0304833 0.931287 -3.04871e-43)
(0.00205351 0.763826 -5.55918e-43)
(-0.00726717 0.547328 0)
(-0.0130299 0.391013 -6.44453e-43)
(-0.0158425 0.291454 -3.4901e-43)
(-0.016613 0.227823 1.91652e-43)
(-0.016743 0.185875 1.06053e-43)
(-0.0163108 0.157666 0)
(-0.0156524 0.138169 -3.91794e-44)
(-0.0149539 0.124265 -4.7332e-45)
(-0.014294 0.11403 0)
(-0.0137042 0.106269 -1.5634e-44)
(-0.013168 0.100208 0)
(-0.0126823 0.0953229 -1.97475e-44)
(-0.0122249 0.0912614 -3.02223e-44)
(-0.0118792 0.08783 7.6178e-45)
(-0.0115721 0.0849424 1.68503e-53)
(-0.011315 0.0824919 -3.98825e-44)
(-0.0110952 0.0803906 -3.279e-44)
(-0.0107684 0.0784864 -4.05874e-45)
(-0.0105244 0.0766639 3.59528e-45)
(-0.0103404 0.0750071 3.4896e-45)
(-0.0102352 0.0735064 -2.69761e-44)
(-0.0095312 0.0718244 -3.23145e-44)
(-0.00969029 0.0700677 -1.3865e-44)
(-0.00972987 0.06897 -1.2174e-44)
(-0.00961912 0.0682132 -3.35347e-44)
(-0.00959835 0.0675682 -2.13119e-44)
(-0.00951389 0.067022 2.82014e-45)
(-0.00953019 0.0665274 -4.48676e-45)
(-0.0092341 0.0659324 -2.49964e-44)
(-0.00900809 0.0649787 -3.03838e-45)
(-0.0085381 0.0636021 4.78794e-44)
(-0.0083283 0.0618514 -4.53712e-52)
(-0.00816213 0.0600434 -2.96592e-44)
(-0.00791297 0.0580906 -2.44939e-44)
(-0.00751382 0.0556798 -7.48939e-45)
(-0.00748293 0.0524327 -7.36793e-44)
(-0.0106337 0.0486315 4.79789e-52)
(0.00233333 0.0409521 1.04444e-43)
(-0.0239975 0.049032 8.30319e-44)
(-0.0168403 0.0791716 -3.28807e-43)
(-0.00504682 0.0858219 1.56169e-43)
(-0.00735492 0.0781138 -4.18456e-52)
(-0.00873357 0.0732853 -1.22569e-43)
(-0.00948594 0.0718199 -2.70236e-44)
(-0.0100357 0.0719878 -3.61175e-44)
(-0.0104322 0.072874 -5.08295e-44)
(-0.0107467 0.0741664 1.26521e-52)
(-0.0110446 0.075742 5.18214e-44)
(-0.0113671 0.0775796 1.01143e-44)
(-0.0117439 0.0797273 -5.07913e-44)
(-0.0122053 0.0822851 -6.93009e-45)
(-0.0127885 0.0854002 8.28665e-45)
(-0.0135456 0.0892738 -5.20737e-44)
(-0.0145551 0.0941824 -3.94267e-44)
(-0.0159439 0.100534 1.34125e-44)
(-0.0179413 0.108999 -1.1878e-44)
(-0.0209953 0.120633 -1.32352e-43)
(-0.0251524 0.136352 4.41515e-45)
(-0.0261598 0.155756 6.27089e-44)
(-0.0441986 0.189752 -5.35429e-43)
(-0.0472862 0.242454 -4.00009e-43)
(-0.0716992 0.30637 -4.95358e-43)
(-0.0871916 0.391497 -9.15621e-43)
(-0.136371 0.509732 2.2159e-42)
(-0.146745 0.635551 2.95395e-42)
(-0.170099 0.679908 -3.87239e-42)
(-0.17052 0.61143 -4.95607e-42)
(-0.254786 0.458699 2.73061e-42)
(-0.0648992 0.47262 5.37098e-42)
(-0.057882 0.241805 1.03808e-43)
(-0.0819632 0.224761 1.02031e-42)
(-0.00189284 0.233542 5.03929e-43)
(-0.0344305 0.188336 2.08758e-43)
(-0.0165525 0.172192 6.89015e-43)
(-0.0124152 0.145617 3.27185e-43)
(-0.0187198 0.128132 3.88052e-43)
(-0.0189996 0.124318 4.34677e-43)
(-0.016912 0.12231 5.3019e-43)
(-0.0159779 0.118634 5.03136e-43)
(-0.0173415 0.116054 5.40171e-43)
(-0.0168947 0.115227 5.36361e-43)
(-0.0178072 0.11491 0)
(-0.0186938 0.116244 -6.51223e-43)
(-0.0183254 0.117766 -1.38195e-42)
(-0.0169426 0.117219 -1.94425e-50)
(-0.0149824 0.113527 6.95815e-43)
(-0.0129977 0.10698 0)
(-0.0111771 0.0985551 -1.58215e-44)
(-0.00949059 0.0891378 1.6827e-44)
(-0.00797142 0.0793293 -1.64013e-44)
(-0.00656941 0.0695437 0)
(-0.00538666 0.0601299 1.85731e-43)
(-0.00464465 0.0516474 1.11889e-43)
(-0.0045156 0.0448754 3.31097e-44)
(-0.00482188 0.0403663 6.18346e-45)
(-0.00502088 0.0378452 5.45709e-45)
(-0.00494554 0.036377 2.59334e-46)
(-0.00482997 0.0352667 6.80064e-45)
(-0.00472177 0.034319 6.24711e-45)
(-0.00462228 0.0334891 5.65516e-45)
(-0.0045319 0.0327531 1.96036e-45)
(-0.00444984 0.0320932 0)
(-0.00437488 0.0314961 0)
(-0.00430597 0.0309518 4.04676e-45)
(-0.00424228 0.0304526 1.55904e-45)
(-0.00418315 0.0299923 0)
(-0.00412805 0.029566 0)
(-0.00407651 0.0291694 5.2375e-54)
(-0.00402816 0.0287991 -1.64004e-45)
(-0.00398267 0.0284522 1.04399e-45)
(-0.00393975 0.0281263 9.56617e-46)
(-0.00389915 0.0278191 0)
(-0.00386065 0.0275288 0)
(-0.00382404 0.0272538 7.36769e-46)
(-0.00378917 0.0269926 6.76973e-46)
(-0.00375587 0.0267439 0)
(-0.00372401 0.0265067 0)
(-0.00369346 0.0262798 0)
(-0.00366409 0.0260623 0)
(-0.00363581 0.0258535 4.65657e-46)
(-0.00360853 0.0256525 4.38643e-46)
(-0.00358215 0.0254587 1.30144e-45)
(-0.0035566 0.0252714 3.98049e-46)
(-0.00353181 0.0250902 0)
(-0.00350771 0.0249143 0)
(-0.00348425 0.0247435 3.68062e-46)
(-0.00346138 0.0245773 3.65566e-46)
(-0.00343904 0.0244153 0)
(-0.00341719 0.0242571 0)
(-0.0033958 0.0241025 3.37798e-46)
(-0.00337483 0.0239512 -3.89014e-46)
(-0.00335425 0.0238028 4.01573e-46)
(-0.00333401 0.0236572 1.09307e-45)
(-0.00331411 0.0235142 0)
(-0.00329451 0.0233735 -6.55005e-46)
(-0.00327518 0.0232349 0)
(-0.00325612 0.0230984 0)
(-0.00323729 0.0229638 0)
(-0.00321869 0.0228308 5.34236e-46)
(-0.0032003 0.0226995 5.56691e-46)
(-0.00318211 0.0225696 -5.79595e-46)
(-0.0031641 0.0224412 -1.20605e-45)
(-0.00314628 0.0223141 -1.25387e-45)
(-0.00312864 0.0221884 -6.63621e-47)
(-0.00311117 0.0220638 6.7574e-46)
(-0.00309387 0.0219405 7.00741e-46)
(-0.00307672 0.0218184 1.29383e-45)
(-0.00305972 0.0216973 7.52663e-46)
(-0.00304288 0.0215774 0)
(-0.00302618 0.0214585 5.51838e-46)
(-0.00300963 0.0213406 8.35113e-46)
(-0.00299321 0.0212238 -5.42141e-46)
(-0.00297693 0.0211079 5.37364e-46)
(-0.00296079 0.020993 9.25701e-46)
(-0.00294478 0.0208791 0)
(-0.00292892 0.0207661 9.90799e-46)
(-0.00291319 0.0206541 1.02507e-45)
(-0.00289759 0.020543 1.57544e-45)
(-0.00288213 0.0204329 2.19546e-45)
(-0.00286681 0.0203238 -5.05691e-46)
(-0.00285163 0.0202156 5.01238e-46)
(-0.00283659 0.0201085 2.43277e-45)
(-0.00282169 0.0200023 7.6641e-46)
(-0.00280692 0.019897 1.30238e-45)
(-0.00279228 0.0197927 2.69426e-45)
(-0.00277779 0.0196894 9.13904e-46)
(-0.00276342 0.019587 1.43922e-45)
(-0.00274919 0.0194856 1.48656e-45)
(-0.00273509 0.0193851 -1.53469e-45)
(-0.00272112 0.0192855 -3.16683e-45)
(-0.00270728 0.0191868 -3.26506e-45)
(-0.00269357 0.0190891 -1.22975e-45)
(-0.00267999 0.0189923 1.73185e-45)
(-0.00266654 0.0188964 1.78222e-45)
(-0.00265322 0.0188014 2.27199e-45)
(-0.00264002 0.0187073 3.76787e-45)
(-0.00262695 0.0186142 1.93471e-45)
(-0.00261401 0.0185219 -1.98515e-45)
(-0.00260119 0.0184305 -2.92805e-53)
(-0.0025885 0.01834 -4.1713e-46)
(-0.00257593 0.0182504 4.12843e-46)
(-0.00256347 0.0181617 2.18379e-45)
(-0.00255113 0.0180738 0)
(-0.00253891 0.0179867 2.28016e-45)
(-0.00252682 0.0179005 2.32682e-45)
(-0.00251484 0.0178151 2.76368e-45)
(-0.00250297 0.0177305 4.83323e-45)
(-0.00249122 0.0176468 -3.82811e-46)
(-0.00247958 0.0175638 3.78566e-46)
(-0.00246804 0.0174817 5.08131e-45)
(-0.00245662 0.0174003 2.20806e-45)
(-0.00244529 0.0173196 -2.61404e-45)
(-0.00243406 0.0172397 -2.64768e-45)
(-0.00242294 0.0171606 -3.5835e-46)
(-0.00241191 0.0170821 2.70864e-45)
(-0.00240098 0.0170043 -3.5065e-46)
(-0.00239014 0.0169272 -2.76065e-45)
(-0.0023794 0.0168508 2.78325e-45)
(-0.00236876 0.0167751 1.19399e-52)
(-0.0023582 0.0167001 -5.64309e-45)
(-0.00234773 0.0166256 3.32146e-46)
(-0.00233735 0.0165519 2.84972e-45)
(-0.00232705 0.0164787 3.18475e-45)
(-0.00231684 0.0164061 5.73321e-45)
(-0.0023067 0.0163341 -3.1846e-46)
(-0.00229663 0.0162626 3.15249e-46)
(-0.00228664 0.0161917 2.87012e-45)
(-0.00227672 0.0161212 -3.17457e-45)
(-0.00226686 0.0160513 3.061e-46)
(-0.00225708 0.0159819 2.84751e-45)
(-0.00224736 0.015913 0)
(-0.0022377 0.0158445 2.81792e-45)
(-0.0022281 0.0157765 -2.95372e-46)
(-0.00221856 0.0157089 -2.77723e-45)
(-0.00220907 0.0156417 2.75299e-45)
(-0.00219963 0.0155749 -2.88597e-46)
(-0.00219023 0.0155084 2.86523e-46)
(-0.00218087 0.0154422 5.33038e-45)
(-0.00217156 0.0153764 2.348e-45)
(-0.00216228 0.0153108 2.59357e-45)
(-0.00215304 0.0152454 2.55388e-45)
(-0.00214383 0.0151803 0)
(-0.00213465 0.0151155 2.46745e-45)
(-0.00212549 0.0150508 -2.75892e-46)
(-0.00211634 0.0149862 -2.37277e-45)
(-0.0021072 0.0149218 2.32271e-45)
(-0.00209806 0.0148574 1.9968e-45)
(-0.00208891 0.014793 0)
(-0.00207976 0.0147287 2.16365e-45)
(-0.00207059 0.0146642 2.10815e-45)
(-0.0020614 0.0145997 2.32701e-45)
(-0.00205218 0.014535 3.98814e-45)
(-0.00204292 0.01447 1.93576e-45)
(-0.00203361 0.0144048 1.87685e-45)
(-0.00202424 0.0143392 1.81754e-45)
(-0.0020148 0.0142732 -5.676e-46)
(-0.00200527 0.0142068 1.69858e-45)
(-0.00199564 0.0141397 3.2785e-45)
(-0.0019859 0.0140719 1.58024e-45)
(-0.00197602 0.0140033 1.52175e-45)
(-0.00196598 0.0139337 1.464e-45)
(-0.00195577 0.0138631 7.13141e-62)
(-0.00194534 0.0137912 1.35159e-45)
(-0.00193468 0.0137178 1.29724e-45)
(-0.00192374 0.0136428 -3.33667e-46)
(-0.00191251 0.013566 1.53616e-45)
(-0.00190094 0.013487 1.14248e-45)
(-0.00188897 0.0134057 1.09395e-45)
(-0.00187657 0.0133217 7.62678e-46)
(-0.00186367 0.0132346 -1.00249e-45)
(-0.00185018 0.013144 -9.59804e-46)
(-0.00183603 0.0130494 -2.27382e-45)
(-0.00182109 0.0129502 -1.33862e-45)
(-0.00180524 0.0128457 8.41412e-46)
(-0.00178838 0.012735 -1.02919e-45)
(-0.00177038 0.0126173 -2.16643e-46)
(-0.00175107 0.0124916 5.89589e-46)
(-0.00173019 0.0123567 1.33131e-45)
(-0.0017074 0.0122109 -2.84318e-47)
(-0.00168225 0.0120523 -7.60738e-46)
(-0.00165375 0.0118778 -8.45464e-46)
(-0.00162093 0.0116821 -9.33996e-46)
(-0.0015815 0.011443 0)
(-0.00153051 0.0111273 1.0525e-45)
(-0.00146807 0.0107179 -1.09953e-45)
(-0.00137229 0.0102083 -1.13991e-45)
(-0.00129023 0.00968935 -2.74266e-46)
(-0.00118986 0.00922245 -6.21734e-46)
(-0.00105574 0.00869541 -2.02771e-45)
(-0.000855048 0.00799108 -2.40148e-45)
(-0.000297167 0.0064266 -1.83119e-45)
(0.000296217 0.00641207 2.00215e-45)
(0.000850176 0.00793899 1.26636e-45)
(0.00104996 0.00864721 -1.1123e-47)
(0.00118973 0.00922409 -1.36092e-45)
(0.00129325 0.00979831 2.71716e-45)
(0.00140034 0.0103344 -7.01648e-48)
(0.00147225 0.0107681 -2.93531e-48)
(0.00153046 0.0111188 -1.11628e-45)
(0.00157722 0.0114036 1.01765e-45)
(0.00161632 0.0116423 9.23362e-46)
(0.00164962 0.011848 8.35646e-46)
(0.00167869 0.0120295 1.20043e-49)
(0.00170456 0.0121927 6.94248e-46)
(0.00172788 0.0123411 -6.39049e-46)
(0.00174906 0.0124773 0)
(0.00176852 0.0126033 -5.51496e-46)
(0.00178655 0.0127209 1.39729e-50)
(0.00180336 0.0128314 9.01689e-46)
(0.00181913 0.0129357 1.47308e-50)
(0.00183402 0.0130349 -4.78194e-47)
(0.00184816 0.0131296 5.26219e-46)
(0.00186165 0.0132204 9.70018e-46)
(0.00187459 0.0133079 -3.65126e-52)
(0.00188704 0.0133925 6.57786e-46)
(0.00189908 0.0134744 1.77346e-45)
(0.00191074 0.013554 2.60942e-52)
(0.00192206 0.0136316 -1.26836e-46)
(0.00193309 0.0137073 3.3227e-46)
(0.00194386 0.0137814 3.24573e-46)
(0.00195438 0.013854 3.17706e-46)
(0.0019647 0.0139252 -1.03449e-45)
(0.00197483 0.0139954 -1.09445e-45)
(0.00198479 0.0140644 1.15549e-45)
(0.0019946 0.0141326 2.43493e-45)
(0.00200428 0.0142 1.28029e-45)
(0.00201385 0.0142667 5.79843e-46)
(0.00202331 0.0143328 1.40816e-45)
(0.0020327 0.0143984 1.47304e-45)
(0.00204201 0.0144636 1.5384e-45)
(0.00205126 0.0145285 3.20817e-45)
(0.00206047 0.0145931 1.39015e-45)
(0.00206963 0.0146575 1.73571e-45)
(0.00207877 0.0147218 1.80132e-45)
(0.00208789 0.014786 0)
(0.002097 0.0148501 2.20916e-45)
(0.0021061 0.0149143 1.99573e-45)
(0.00211521 0.0149786 -2.05931e-45)
(0.00212433 0.015043 2.79022e-46)
(0.00213346 0.0151075 2.18367e-45)
(0.00214261 0.0151722 0)
(0.00215179 0.0152371 2.30313e-45)
(0.002161 0.0153023 2.36066e-45)
(0.00217025 0.0153677 2.70204e-45)
(0.00217954 0.0154335 4.94188e-45)
(0.00218887 0.0154996 -2.8913e-46)
(0.00219825 0.0155661 2.91208e-46)
(0.00220768 0.015633 2.62356e-45)
(0.00221717 0.0157003 -2.67079e-45)
(0.00222672 0.015768 2.98207e-46)
(0.00223632 0.0158362 2.75948e-45)
(0.00224599 0.0159048 0)
(0.00225573 0.015974 2.84032e-45)
(0.00226555 0.0160437 -3.09085e-46)
(0.00227543 0.0161139 -2.60093e-45)
(0.00228539 0.0161847 2.94605e-45)
(0.00229543 0.016256 -3.18162e-46)
(0.00230555 0.0163279 3.21312e-46)
(0.00231574 0.0164003 6.06339e-45)
(0.00232603 0.0164734 2.72784e-45)
(0.00233639 0.0165471 3.07728e-45)
(0.00234684 0.0166214 -3.3458e-46)
(0.00235738 0.0166964 -6.22698e-45)
(0.00236801 0.016772 7.67724e-54)
(0.00237873 0.0168482 3.14013e-45)
(0.00238954 0.0169252 -3.1499e-45)
(0.00240045 0.0170028 3.52349e-46)
(0.00241146 0.0170812 3.16277e-45)
(0.00242256 0.0171602 3.59718e-46)
(0.00243377 0.01724 -3.16733e-45)
(0.00244509 0.0173205 -3.16659e-45)
(0.00245651 0.0174018 3.53495e-45)
(0.00246803 0.0174839 6.31807e-45)
(0.00247966 0.0175667 -3.7883e-46)
(0.00249139 0.0176502 3.82693e-46)
(0.00250324 0.0177346 6.26563e-45)
(0.00251519 0.0178197 2.73004e-45)
(0.00252726 0.0179057 3.10665e-45)
(0.00253944 0.0179925 3.09134e-45)
(0.00255174 0.0180801 0)
(0.00256416 0.0181686 3.05668e-45)
(0.00257669 0.0182579 -4.10289e-46)
(0.00258935 0.018348 4.14258e-46)
(0.00260213 0.0184391 -1.37229e-53)
(0.00261503 0.018531 -2.97316e-45)
(0.00262805 0.0186237 2.94981e-45)
(0.0026412 0.0187174 5.85118e-45)
(0.00265447 0.0188119 2.46631e-45)
(0.00266786 0.0189073 2.8746e-45)
(0.00268138 0.0190037 2.84794e-45)
(0.00269503 0.0191009 -3.26682e-45)
(0.00270881 0.019199 -5.5855e-45)
(0.00272271 0.0192981 -5.52883e-45)
(0.00273675 0.0193981 -2.73565e-45)
(0.00275091 0.019499 2.70644e-45)
(0.00276521 0.0196008 2.67674e-45)
(0.00277964 0.0197035 3.11698e-45)
(0.00279419 0.0198072 5.23179e-45)
(0.00280888 0.0199118 2.58482e-45)
(0.0028237 0.0200174 3.03589e-45)
(0.00283866 0.0201238 5.04332e-45)
(0.00285375 0.0202313 -4.90644e-46)
(0.00286897 0.0203396 4.94735e-46)
(0.00288432 0.0204489 4.84806e-45)
(0.00289981 0.0205591 1.88761e-45)
(0.00291543 0.0206703 2.35648e-45)
(0.00293118 0.0207825 2.32201e-45)
(0.00294708 0.0208955 0)
(0.00296311 0.0210096 2.25178e-45)
(0.00297927 0.0211246 -5.23812e-46)
(0.00299558 0.0212406 5.28192e-46)
(0.00301202 0.0213576 2.14222e-45)
(0.00302861 0.0214756 -5.37179e-46)
(0.00304533 0.0215947 0)
(0.00306221 0.0217147 2.02579e-45)
(0.00307923 0.0218359 1.43395e-45)
(0.0030964 0.0219581 1.94415e-45)
(0.00311373 0.0220815 1.90223e-45)
(0.00313122 0.0222061 -2.42667e-45)
(0.00314888 0.0223319 -3.63316e-45)
(0.00316671 0.022459 -3.54604e-45)
(0.00318472 0.0225875 -1.72911e-45)
(0.00320293 0.0227174 1.68499e-45)
(0.00322133 0.0228488 1.64086e-45)
(0.00323995 0.0229818 0)
(0.00325879 0.0231166 0)
(0.00327788 0.0232533 0)
(0.00329724 0.023392 6.30373e-46)
(0.00331687 0.0235329 0)
(0.00333681 0.0236762 7.45376e-46)
(0.00335708 0.023822 1.36178e-45)
(0.00337771 0.0239706 -1.33124e-45)
(0.00339872 0.0241222 -1.99087e-45)
(0.00342016 0.0242771 0)
(0.00344205 0.0244356 0)
(0.00346444 0.024598 1.25158e-45)
(0.00348737 0.0247647 1.24401e-45)
(0.00351089 0.0249359 0)
(0.00353506 0.0251123 0)
(0.00355993 0.0252942 1.25299e-45)
(0.00358556 0.0254821 4.1891e-46)
(0.00361203 0.0256766 1.28396e-45)
(0.00363941 0.0258782 1.30593e-45)
(0.00366779 0.0260878 0)
(0.00369726 0.026306 0)
(0.00372792 0.0265335 0)
(0.00375988 0.0267715 0)
(0.00379327 0.0270208 1.4619e-45)
(0.00382823 0.0272826 1.49914e-45)
(0.00386492 0.0275581 0)
(0.00390349 0.0278489 0)
(0.00394416 0.0281566 1.61532e-45)
(0.00398714 0.0284829 1.65364e-45)
(0.00403267 0.0288301 1.60415e-45)
(0.00408106 0.0292007 -7.15984e-54)
(0.00413262 0.0295975 0)
(0.00418773 0.030024 0)
(0.00424685 0.0304843 1.78825e-45)
(0.00431052 0.0309833 -5.66003e-46)
(0.00437938 0.0315273 0)
(0.00445428 0.0321239 0)
(0.00453626 0.0327831 1.68265e-45)
(0.00462654 0.033518 -2.03313e-45)
(0.00472591 0.0343466 -2.75845e-45)
(0.00483399 0.0352926 -3.99061e-45)
(0.00494949 0.0364003 -7.14873e-46)
(0.00502598 0.0378625 -1.28457e-44)
(0.0048294 0.0403697 -4.8132e-45)
(0.00452221 0.0448574 3.11348e-44)
(0.00464703 0.0516072 8.24558e-44)
(0.00538448 0.0600707 1.82954e-43)
(0.00656403 0.0694688 0)
(0.00796344 0.0792402 1.64295e-44)
(0.00948266 0.089034 -1.67412e-44)
(0.0111548 0.0984502 1.60794e-44)
(0.012989 0.106873 0)
(0.0149467 0.113441 7.06884e-43)
(0.0169265 0.117161 1.84479e-50)
(0.0183032 0.117742 -1.37728e-42)
(0.0186861 0.116262 -5.97722e-43)
(0.0177568 0.115042 0)
(0.0168902 0.11547 5.38671e-43)
(0.0174573 0.116224 4.72408e-43)
(0.0160429 0.118641 4.84803e-43)
(0.0168582 0.122318 4.81979e-43)
(0.018937 0.124473 4.36508e-43)
(0.0187486 0.12835 2.09657e-43)
(0.0125393 0.145676 4.51465e-43)
(0.0165174 0.172073 6.90353e-43)
(0.0345862 0.187828 9.60123e-43)
(0.00192922 0.232515 1.90757e-42)
(0.0812388 0.223997 -1.00594e-42)
(0.0583616 0.239842 -1.27563e-43)
(0.063508 0.471393 2.14434e-42)
(0.254236 0.457492 2.71601e-42)
(0.170278 0.611265 -3.23493e-42)
(0.170071 0.679502 -3.88497e-42)
(0.147102 0.635034 3.22525e-42)
(0.136469 0.508877 1.3989e-42)
(0.0871386 0.390475 -7.6954e-43)
(0.0714466 0.30541 -4.90702e-43)
(0.0471465 0.241556 -3.98774e-43)
(0.0440308 0.188917 -5.33619e-43)
(0.0260362 0.155023 -6.24038e-44)
(0.0250244 0.135718 -4.26836e-45)
(0.0208938 0.120083 -1.32036e-43)
(0.017858 0.108501 -6.94307e-44)
(0.0158708 0.100064 -1.33717e-44)
(0.0144877 0.093727 -1.59858e-44)
(0.0134812 0.0888228 -5.20478e-44)
(0.0127253 0.0849466 -8.28091e-45)
(0.0121422 0.0818235 6.93588e-45)
(0.0116802 0.079253 -5.06241e-44)
(0.0113019 0.0770885 -1.01681e-44)
(0.0109773 0.0752305 5.14793e-44)
(0.0106768 0.0736308 -9.56217e-53)
(0.0103594 0.0723104 -5.92533e-44)
(0.00995933 0.0713921 -2.43681e-44)
(0.00940426 0.0711859 -4.50619e-44)
(0.00864585 0.0726022 -8.99992e-44)
(0.00726194 0.0773643 5.27493e-52)
(0.00495563 0.0849606 3.72445e-43)
(0.0167704 0.0781135 -3.18226e-43)
(0.0239054 0.0476642 -1.98235e-43)
(-0.00260068 0.0395631 -1.37781e-43)
(0.0104223 0.0474285 -2.5269e-52)
(0.00727829 0.0513038 -3.33673e-44)
(0.00734037 0.0545751 -2.52225e-44)
(0.00775292 0.0569792 -9.01714e-45)
(0.00800491 0.0589007 -3.74452e-44)
(0.00816958 0.0606609 9.31422e-53)
(0.00837239 0.0623537 4.84422e-44)
(0.00884228 0.0636583 2.99873e-45)
(0.0090456 0.0645434 -2.8387e-44)
(0.0093372 0.0650766 4.34499e-45)
(0.0093063 0.0655125 -2.60083e-45)
(0.00937848 0.0659775 -1.4523e-44)
(0.00949225 0.0664285 -2.37497e-44)
(0.00946361 0.0670223 -1.00042e-44)
(0.00941291 0.0680229 -6.07619e-45)
(0.00925545 0.0696879 -3.19597e-44)
(0.00993599 0.0712752 -1.45677e-44)
(0.0100433 0.0726695 -1.79116e-44)
(0.0101954 0.0742267 -1.48856e-44)
(0.0104343 0.0759545 -1.9229e-44)
(0.0107527 0.0777536 -1.29863e-44)
(0.0109606 0.0797397 0)
(0.0112085 0.0820634 0)
(0.0115023 0.0848124 -6.17688e-53)
(0.0118323 0.0880957 0)
(0.0122803 0.0919959 0)
(0.0127536 0.0967052 0)
(0.0132804 0.102579 0)
(0.0138599 0.110151 0)
(0.0145119 0.120215 2.44141e-44)
(0.0152095 0.133991 0)
(0.0158827 0.153415 0)
(0.016364 0.181626 0)
(0.01632 0.223609 0)
(0.0156172 0.287041 0)
(0.0129642 0.385678 -1.49536e-44)
(0.00723869 0.540466 -1.31053e-42)
(-0.00357165 0.760198 -2.3594e-42)
(0.0139283 0.957967 -4.92006e-43)
(0.0270678 1.01162 5.24754e-43)
(-0.157764 1.20381 -9.65132e-42)
(-0.0386199 1.70282 -2.38838e-41)
(0.317101 1.62938 0)
(0.26406 0.973287 1.56204e-42)
(0.176936 0.614276 0)
(0.115152 0.43281 6.72793e-43)
(0.076685 0.332223 7.68342e-43)
(0.0543376 0.273124 2.37715e-43)
(0.0414429 0.237338 -1.44225e-43)
(0.0349197 0.209823 -5.46375e-45)
(0.0349405 0.197139 1.14977e-45)
(-0.000622422 0.0231601 5.49604e-45)
(-0.00077495 0.0415548 0)
(-0.000845757 0.0607657 9.8049e-47)
(-0.000889784 0.0803548 0)
(-0.000950173 0.100078 0)
(-0.00101375 0.119926 0)
(-0.00105228 0.139744 0)
(-0.00107675 0.159365 0)
(-0.00109824 0.178693 0)
(-0.00111893 0.197667 0)
(-0.001138 0.216246 0)
(-0.00115466 0.234394 -2.11444e-48)
(-0.0011687 0.252088 -8.27855e-49)
(-0.00117991 0.269306 2.39264e-52)
(-0.00118799 0.286034 1.28746e-48)
(-0.00119281 0.30226 4.35471e-49)
(-0.0011945 0.317973 0)
(-0.00119328 0.33317 0)
(-0.00118938 0.347846 -5.55332e-50)
(-0.00118302 0.362002 -2.77434e-50)
(-0.00117438 0.37564 2.63977e-50)
(-0.00116356 0.388763 5.93592e-52)
(-0.00115069 0.401376 0)
(-0.00113585 0.413487 -1.39303e-52)
(-0.00111916 0.425101 0)
(-0.0011007 0.436228 8.07989e-52)
(-0.00108059 0.446877 7.90867e-52)
(-0.00105892 0.457056 0)
(-0.0010358 0.466776 -9.40035e-53)
(-0.00101132 0.476048 -9.13314e-53)
(-0.000985584 0.484881 0)
(-0.000958678 0.493286 0)
(-0.00093069 0.501275 0)
(-0.000901701 0.508858 0)
(-0.000871789 0.516046 0)
(-0.000841029 0.52285 0)
(-0.000809489 0.529281 0)
(-0.000777236 0.535348 0)
(-0.000744331 0.541062 0)
(-0.000710833 0.546433 0)
(-0.000676795 0.551471 0)
(-0.000642268 0.556185 0)
(-0.000607299 0.560584 0)
(-0.000571932 0.564676 0)
(-0.000536208 0.56847 0)
(-0.000500165 0.571974 0)
(-0.000463837 0.575195 0)
(-0.000427258 0.578139 0)
(-0.000390456 0.580814 0)
(-0.00035346 0.583225 0)
(-0.000316295 0.585378 0)
(-0.000278986 0.587278 0)
(-0.000241555 0.588929 0)
(-0.000204022 0.590335 0)
(-0.000166408 0.591499 0)
(-0.000128732 0.592425 0)
(-9.10106e-05 0.593115 0)
(-5.32621e-05 0.59357 0)
(-1.55035e-05 0.593791 0)
(2.22482e-05 0.59378 0)
(5.99761e-05 0.593537 0)
(9.7663e-05 0.59306 0)
(0.000135291 0.592349 0)
(0.000172843 0.591402 0)
(0.0002103 0.590217 0)
(0.000247641 0.588792 0)
(0.000284848 0.587123 0)
(0.000321898 0.585206 0)
(0.000358768 0.583037 0)
(0.000395435 0.580612 0)
(0.000431873 0.577924 0)
(0.000468056 0.574969 0)
(0.000503956 0.571739 0)
(0.000539544 0.568228 0)
(0.000574787 0.564429 0)
(0.000609655 0.560333 0)
(0.000644112 0.555933 0)
(0.000678123 0.55122 0)
(0.000711648 0.546185 0)
(0.000744648 0.540818 0)
(0.000777078 0.535111 0)
(0.000808891 0.529051 0)
(0.000840037 0.52263 0)
(0.000870461 0.515837 0)
(0.000900103 0.50866 0)
(0.000928896 0.501089 0)
(0.00095677 0.493113 0)
(0.000983646 0.48472 0)
(0.00100944 0.475898 0)
(0.00103406 0.466638 0)
(0.0010574 0.456929 0)
(0.00107935 0.446758 0)
(0.00109982 0.436118 0)
(0.00111868 0.424997 0)
(0.00113582 0.413387 0)
(0.00115111 0.401279 0)
(0.00116445 0.388667 0)
(0.0011757 0.375544 0)
(0.00118474 0.361905 0)
(0.00119143 0.347746 0)
(0.00119559 0.333066 4.35532e-52)
(0.00119705 0.317866 4.33109e-52)
(0.0011956 0.302148 6.86997e-51)
(0.00119105 0.285919 6.79981e-51)
(0.00118324 0.269189 5.38583e-50)
(0.00117201 0.251969 2.40612e-49)
(0.00115725 0.234277 0)
(0.0011391 0.216133 6.42735e-48)
(0.00111854 0.197558 -9.73754e-48)
(0.00109714 0.178582 -2.28031e-47)
(0.00107731 0.159245 -2.25098e-47)
(0.00105907 0.139595 -2.30098e-46)
(0.00102859 0.119716 -1.07363e-46)
(0.000958553 0.0998457 0)
(0.000884028 0.0802533 1.26636e-46)
(0.000860497 0.0607134 0)
(0.000789958 0.0415201 0)
(0.000630053 0.0231347 0)
(0.10354 0.527226 0)
(0.165797 0.79046 -1.83338e-44)
(0.217385 0.989909 -3.00599e-44)
(0.256328 1.13529 2.74352e-46)
(0.282615 1.23756 0)
(0.297215 1.30705 -1.35391e-45)
(0.301553 1.3525 4.3801e-45)
(0.297216 1.38097 0)
(0.28578 1.39792 -7.05366e-45)
(0.268715 1.40747 -8.06017e-45)
(0.247341 1.41257 0)
(0.222807 1.41525 6.44739e-46)
(0.196074 1.41673 4.7912e-46)
(0.167905 1.41767 -1.56064e-46)
(0.138853 1.41827 -1.08888e-46)
(0.109276 1.41849 1.33006e-45)
(0.0793538 1.41822 -1.26537e-47)
(0.0491504 1.41741 0)
(0.0186729 1.41612 -1.72853e-46)
(-0.0120725 1.41453 4.3417e-47)
(-0.0430254 1.4129 2.1771e-47)
(-0.0740662 1.41152 -1.08893e-47)
(-0.104995 1.41061 1.51368e-48)
(-0.135537 1.41026 6.79164e-46)
(-0.165345 1.4104 -1.84204e-47)
(-0.19398 1.41078 -1.05037e-44)
(-0.220882 1.41085 0)
(-0.245353 1.40976 0)
(-0.266538 1.40612 4.64524e-45)
(-0.283397 1.3979 -2.08975e-45)
(-0.294701 1.38222 -1.37601e-44)
(-0.299055 1.35506 -1.55045e-44)
(-0.294924 1.31103 0)
(-0.280685 1.24305 -3.43215e-44)
(-0.25481 1.14212 -3.22594e-44)
(-0.216303 0.997614 0)
(-0.165138 0.798073 -8.00855e-45)
(-0.103314 0.533404 2.47365e-44)
(0.00171767 0.0253145 1.53652e-45)
(0.00241659 0.0265863 -7.56684e-45)
(0.00290255 0.0278246 -5.81839e-45)
(0.00326498 0.0293047 5.23343e-45)
(0.00367882 0.0307804 -2.80953e-45)
(0.00394715 0.0319734 -6.22499e-45)
(0.00415725 0.0329495 -3.23625e-48)
(0.00432615 0.0337498 2.6857e-45)
(0.00446904 0.0344276 2.37369e-45)
(0.00459225 0.0350179 2.08336e-45)
(0.00470082 0.0355448 -2.00131e-45)
(0.00479758 0.036022 -1.53568e-49)
(0.00488453 0.0364578 -1.61307e-45)
(0.00496286 0.0368585 -1.773e-45)
(0.00503397 0.0372297 0)
(0.00509897 0.0375761 -9.24143e-46)
(0.00515878 0.0379017 4.4259e-46)
(0.00521414 0.0382094 -1.67075e-45)
(0.00526571 0.038502 -5.48386e-46)
(0.00531405 0.0387813 0)
(0.00535963 0.0390493 1.02595e-45)
(0.00540285 0.0393072 1.9742e-45)
(0.00544403 0.0395563 -9.52581e-46)
(0.00548343 0.0397975 -8.41789e-46)
(0.00552128 0.0400317 -9.06778e-46)
(0.00555775 0.0402597 8.69887e-46)
(0.00559299 0.0404821 8.47965e-46)
(0.00562713 0.0406995 8.28362e-46)
(0.00566029 0.0409125 0)
(0.00569257 0.0411214 -7.95157e-46)
(0.00572404 0.0413269 0)
(0.0057548 0.0415292 -1.5373e-45)
(0.0057849 0.0417287 -7.57524e-46)
(0.00581444 0.0419258 -1.56872e-45)
(0.00584346 0.0421208 4.08078e-53)
(0.00587202 0.0423141 9.96983e-46)
(0.00590019 0.0425057 1.08437e-45)
(0.00592801 0.0426961 1.89099e-45)
(0.00595552 0.0428855 0)
(0.00598278 0.043074 0)
(0.00600981 0.0432619 0)
(0.00603665 0.0434494 2.21814e-45)
(0.00606334 0.0436366 2.29927e-45)
(0.0060899 0.0438237 7.05476e-46)
(0.00611637 0.0440108 2.45969e-45)
(0.00614277 0.0441981 2.53864e-45)
(0.00616913 0.0443858 7.08024e-46)
(0.00619548 0.0445739 2.69297e-45)
(0.00622182 0.0447626 2.76789e-45)
(0.00624819 0.044952 0)
(0.0062746 0.0451421 2.91235e-45)
(0.00630108 0.0453331 7.23045e-46)
(0.00632763 0.0455251 -3.04899e-45)
(0.00635427 0.0457181 3.11421e-45)
(0.00638103 0.0459123 3.91449e-45)
(0.0064079 0.0461076 3.23805e-45)
(0.00643491 0.0463042 6.59306e-45)
(0.00646206 0.0465022 4.10724e-45)
(0.00648937 0.0467015 3.40636e-45)
(0.00651684 0.0469023 3.45764e-45)
(0.00654449 0.0471047 0)
(0.00657233 0.0473086 3.55274e-45)
(0.00660037 0.0475142 4.3855e-45)
(0.00662862 0.0477214 0)
(0.00665708 0.0479303 3.67545e-45)
(0.00668576 0.0481411 4.52305e-45)
(0.00671467 0.0483536 0)
(0.00674382 0.0485679 0)
(0.0067732 0.0487842 0)
(0.00680283 0.0490023 3.82372e-45)
(0.00683271 0.0492224 7.68937e-45)
(0.00686284 0.0494446 3.86266e-45)
(0.00689324 0.0496687 3.87767e-45)
(0.00692389 0.0498949 3.88978e-45)
(0.00695482 0.0501233 8.89484e-46)
(0.00698604 0.0503538 3.90583e-45)
(0.00701754 0.0505865 8.7278e-45)
(0.00704935 0.0508214 3.91168e-45)
(0.00708145 0.0510585 3.91087e-45)
(0.00711385 0.0512979 9.36062e-46)
(0.00714656 0.0515396 -3.90163e-45)
(0.00717958 0.0517836 3.89324e-45)
(0.00721291 0.05203 4.84711e-45)
(0.00724656 0.0522787 0)
(0.00728052 0.0525298 0)
(0.0073148 0.0527833 0)
(0.00734942 0.0530394 3.81849e-45)
(0.00738437 0.0532979 3.79797e-45)
(0.00741966 0.0535589 0)
(0.00745529 0.0538224 3.7521e-45)
(0.00749128 0.0540885 4.76946e-45)
(0.00752762 0.0543572 0)
(0.00756432 0.0546285 0)
(0.00760138 0.0549023 0)
(0.0076388 0.0551788 0)
(0.00767657 0.0554578 0)
(0.00771471 0.0557395 0)
(0.0077532 0.0560239 0)
(0.00779206 0.056311 4.60574e-45)
(0.00783129 0.0566007 3.45073e-45)
(0.0078709 0.0568932 0)
(0.00791089 0.0571884 3.38043e-45)
(0.00795126 0.0574863 3.34442e-45)
(0.00799202 0.0577869 0)
(0.00803316 0.0580903 -2.09094e-45)
(0.00807468 0.0583964 -3.23278e-45)
(0.00811659 0.0587053 3.19453e-45)
(0.00815889 0.0590169 1.20898e-45)
(0.00820158 0.0593312 -3.11683e-45)
(0.00824465 0.0596484 3.07731e-45)
(0.00828812 0.0599683 4.2759e-45)
(0.00833197 0.060291 0)
(0.00837621 0.0606166 0)
(0.00842085 0.0609449 0)
(0.00846589 0.0612761 2.87099e-45)
(0.00851132 0.0616101 2.82816e-45)
(0.00855715 0.061947 0)
(0.00860337 0.0622868 2.74078e-45)
(0.00864999 0.0626296 4.01622e-45)
(0.008697 0.0629753 0)
(0.0087444 0.0633241 0)
(0.0087922 0.063676 2.55618e-45)
(0.00884039 0.0640311 2.50764e-45)
(0.00888899 0.0643895 3.83532e-45)
(0.008938 0.0647512 2.40779e-45)
(0.00898743 0.0651164 0)
(0.00903727 0.0654852 3.72046e-45)
(0.00908754 0.0658577 2.25226e-45)
(0.00913824 0.0662343 -2.19928e-45)
(0.00918939 0.066615 -4.29186e-45)
(0.00924098 0.0670001 -4.18482e-45)
(0.00929303 0.0673898 -2.039e-45)
(0.00934557 0.0677845 1.98609e-45)
(0.00939861 0.0681846 1.93413e-45)
(0.00945218 0.0685903 1.88361e-45)
(0.0095063 0.0690022 3.40931e-45)
(0.00956102 0.0694207 1.78885e-45)
(0.00961636 0.0698464 1.74569e-45)
(0.00967237 0.0702797 1.70616e-45)
(0.00972911 0.0707214 1.67096e-45)
(0.00978661 0.0711723 0)
(0.00984494 0.0716329 0)
(0.00990416 0.0721043 0)
(0.00996435 0.0725874 0)
(0.0100256 0.0730832 1.58094e-45)
(0.0100879 0.0735929 1.58292e-45)
(0.0101516 0.0741177 0)
(0.0102165 0.0746591 0)
(0.0102829 0.0752184 0)
(0.0103509 0.0757975 0)
(0.0104206 0.0763981 1.69473e-45)
(0.0104922 0.0770223 1.73503e-45)
(0.0105658 0.0776722 0)
(0.0106416 0.0783504 0)
(0.0107199 0.0790596 4.59587e-45)
(0.0108007 0.0798028 1.94033e-45)
(0.0108843 0.0805834 0)
(0.010971 0.0814052 0)
(0.0110609 0.0822726 2.13133e-45)
(0.0111544 0.0831903 1.78303e-52)
(0.0112516 0.0841639 -4.54608e-45)
(0.0113529 0.0851998 1.68307e-45)
(0.0114584 0.0863054 6.73767e-45)
(0.0115685 0.0874892 2.49845e-45)
(0.0116833 0.0887615 2.57423e-45)
(0.0118029 0.0901344 2.64966e-45)
(0.0119272 0.0916228 2.72561e-45)
(0.0120558 0.0932451 9.26572e-45)
(0.0121879 0.0950247 1.00187e-44)
(0.0123214 0.0969921 3.01342e-45)
(0.0124521 0.0991891 0)
(0.0125692 0.101676 0)
(0.0126463 0.104546 1.58952e-44)